Title: spice test
Date: 26.04.2026 15:30:39
Plotname:  Harmonic Balance Simulation
Flags: complex
No. Variables:    5
No. Points:   30
Command:  version hbfree
Variables:
      0    frequency    frequency
      1    V(1)    voltage
      2    V(2)    voltage
      3    V(out)    voltage
      4    V(#int04)    voltage
Values:
    0    +0.0000000000000E+00,+0.0000000000000E+00
         +0.0000000000000E+00,+0.0000000000000E+00
         +0.0000000000000E+00,+0.0000000000000E+00
         +0.0000000000000E+00,+0.0000000000000E+00
         +0.0000000000000E+00,+0.0000000000000E+00
    1    +0.0000000000000E+00,+0.0000000000000E+00
         -0.3136627924210E-07,+0.0000000000000E+00
         +0.3138196238172E-03,+0.0000000000000E+00
         +0.3136627924210E-03,+0.0000000000000E+00
         -0.3450290716631E-06,+0.0000000000000E+00
    2    +0.0000000000000E+00,+0.0000000000000E+00
         +0.0000000000000E+00,+0.0000000000000E+00
         +0.0000000000000E+00,+0.0000000000000E+00
         +0.0000000000000E+00,+0.0000000000000E+00
         +0.0000000000000E+00,+0.0000000000000E+00
    3    +0.1000000844665E+09,+0.0000000000000E+00
         +0.0000000000000E+00,+0.0000000000000E+00
         +0.0000000000000E+00,+0.0000000000000E+00
         +0.0000000000000E+00,+0.0000000000000E+00
         +0.0000000000000E+00,+0.0000000000000E+00
    4    +0.1000000844665E+09,+0.0000000000000E+00
         -0.5194513742168E-06,-0.1414213148096E+00
         +0.5767115873066E-06,-0.4103422134322E-03
         -0.6217361232601E-06,+0.4105483938252E-03
         -0.5192686418540E-06,-0.1414209005418E+00
    5    +0.1000000844665E+09,+0.0000000000000E+00
         +0.0000000000000E+00,+0.0000000000000E+00
         +0.0000000000000E+00,+0.0000000000000E+00
         +0.0000000000000E+00,+0.0000000000000E+00
         +0.0000000000000E+00,+0.0000000000000E+00
    6    +0.2000001689329E+09,+0.0000000000000E+00
         +0.0000000000000E+00,+0.0000000000000E+00
         +0.0000000000000E+00,+0.0000000000000E+00
         +0.0000000000000E+00,+0.0000000000000E+00
         +0.0000000000000E+00,+0.0000000000000E+00
    7    +0.2000001689329E+09,+0.0000000000000E+00
         +0.3346688780833E-07,-0.3492047778257E-10
         -0.3458048805477E-03,-0.4527927573586E-05
         -0.3456343408833E-03,-0.4600955581972E-05
         +0.3681357658916E-06,-0.3841252556083E-09
    8    +0.2000001689329E+09,+0.0000000000000E+00
         +0.0000000000000E+00,+0.0000000000000E+00
         +0.0000000000000E+00,+0.0000000000000E+00
         +0.0000000000000E+00,+0.0000000000000E+00
         +0.0000000000000E+00,+0.0000000000000E+00
    9    +0.3000002533994E+09,+0.0000000000000E+00
         +0.0000000000000E+00,+0.0000000000000E+00
         +0.0000000000000E+00,+0.0000000000000E+00
         +0.0000000000000E+00,+0.0000000000000E+00
         +0.0000000000000E+00,+0.0000000000000E+00
   10    +0.3000002533994E+09,+0.0000000000000E+00
         -0.4806666703171E-10,-0.2354148824850E-07
         -0.7655489724251E-05,+0.2217280196177E-03
         +0.7732001477156E-05,-0.2218411502435E-03
         -0.5287333373488E-09,-0.2589563707335E-06
   11    +0.3000002533994E+09,+0.0000000000000E+00
         +0.0000000000000E+00,+0.0000000000000E+00
         +0.0000000000000E+00,+0.0000000000000E+00
         +0.0000000000000E+00,+0.0000000000000E+00
         +0.0000000000000E+00,+0.0000000000000E+00
   12    +0.4000003378658E+09,+0.0000000000000E+00
         +0.0000000000000E+00,+0.0000000000000E+00
         +0.0000000000000E+00,+0.0000000000000E+00
         +0.0000000000000E+00,+0.0000000000000E+00
         +0.0000000000000E+00,+0.0000000000000E+00
   13    +0.4000003378658E+09,+0.0000000000000E+00
         -0.1447845131401E-07,+0.5582074811664E-10
         +0.1575289492841E-03,+0.1228430766427E-04
         +0.1574508211578E-03,+0.1234719279967E-04
         -0.1592629644541E-06,+0.6140282292831E-09
   14    +0.4000003378658E+09,+0.0000000000000E+00
         +0.0000000000000E+00,+0.0000000000000E+00
         +0.0000000000000E+00,+0.0000000000000E+00
         +0.0000000000000E+00,+0.0000000000000E+00
         +0.0000000000000E+00,+0.0000000000000E+00
   15    +0.5000004223323E+09,+0.0000000000000E+00
         +0.0000000000000E+00,+0.0000000000000E+00
         +0.0000000000000E+00,+0.0000000000000E+00
         +0.0000000000000E+00,+0.0000000000000E+00
         +0.0000000000000E+00,+0.0000000000000E+00
   16    +0.5000004223323E+09,+0.0000000000000E+00
         +0.5701654039758E-10,+0.7809241424236E-08
         +0.1565497768865E-04,-0.7468204723220E-04
         -0.1569657308933E-04,+0.7467792870385E-04
         +0.6271819443734E-09,+0.8590165566659E-07
   17    +0.5000004223323E+09,+0.0000000000000E+00
         +0.0000000000000E+00,+0.0000000000000E+00
         +0.0000000000000E+00,+0.0000000000000E+00
         +0.0000000000000E+00,+0.0000000000000E+00
         +0.0000000000000E+00,+0.0000000000000E+00
   18    +0.6000005067987E+09,+0.0000000000000E+00
         +0.0000000000000E+00,+0.0000000000000E+00
         +0.0000000000000E+00,+0.0000000000000E+00
         +0.0000000000000E+00,+0.0000000000000E+00
         +0.0000000000000E+00,+0.0000000000000E+00
   19    +0.6000005067987E+09,+0.0000000000000E+00
         +0.3692603216975E-08,-0.5194767233486E-10
         -0.3469702636326E-04,-0.8526035313173E-05
         -0.3469440273241E-04,-0.8549435878383E-05
         +0.4061863538673E-07,-0.5714243956834E-09
   20    +0.6000005067987E+09,+0.0000000000000E+00
         +0.0000000000000E+00,+0.0000000000000E+00
         +0.0000000000000E+00,+0.0000000000000E+00
         +0.0000000000000E+00,+0.0000000000000E+00
         +0.0000000000000E+00,+0.0000000000000E+00
   21    +0.7000005912652E+09,+0.0000000000000E+00
         +0.0000000000000E+00,+0.0000000000000E+00
         +0.0000000000000E+00,+0.0000000000000E+00
         +0.0000000000000E+00,+0.0000000000000E+00
         +0.0000000000000E+00,+0.0000000000000E+00
   22    +0.7000005912652E+09,+0.0000000000000E+00
         -0.4245942892341E-10,-0.1518508207363E-08
         -0.3837755732840E-05,+0.1401436735350E-04
         +0.3848885694375E-05,-0.1401306205713E-04
         -0.4670537181575E-09,-0.1670359028099E-07
   23    +0.7000005912652E+09,+0.0000000000000E+00
         +0.0000000000000E+00,+0.0000000000000E+00
         +0.0000000000000E+00,+0.0000000000000E+00
         +0.0000000000000E+00,+0.0000000000000E+00
         +0.0000000000000E+00,+0.0000000000000E+00
   24    +0.8000006757317E+09,+0.0000000000000E+00
         +0.0000000000000E+00,+0.0000000000000E+00
         +0.0000000000000E+00,+0.0000000000000E+00
         +0.0000000000000E+00,+0.0000000000000E+00
         +0.0000000000000E+00,+0.0000000000000E+00
   25    +0.8000006757317E+09,+0.0000000000000E+00
         -0.5291794088084E-09,+0.3123108404306E-10
         +0.4816825351449E-05,+0.1361947064111E-05
         +0.4816366164067E-05,+0.1366350635653E-05
         -0.5820973496892E-08,+0.3435419244737E-09
   26    +0.8000006757317E+09,+0.0000000000000E+00
         +0.0000000000000E+00,+0.0000000000000E+00
         +0.0000000000000E+00,+0.0000000000000E+00
         +0.0000000000000E+00,+0.0000000000000E+00
         +0.0000000000000E+00,+0.0000000000000E+00
   27    +0.9000007601981E+09,+0.0000000000000E+00
         +0.0000000000000E+00,+0.0000000000000E+00
         +0.0000000000000E+00,+0.0000000000000E+00
         +0.0000000000000E+00,+0.0000000000000E+00
         +0.0000000000000E+00,+0.0000000000000E+00
   28    +0.9000007601981E+09,+0.0000000000000E+00
         +0.2071898497535E-10,+0.1442424306782E-09
         +0.3093552362683E-06,-0.1320916515007E-05
         -0.3107095362062E-06,+0.1320865779579E-05
         +0.2279088347288E-09,+0.1586666737460E-08
   29    +0.9000007601981E+09,+0.0000000000000E+00
         +0.0000000000000E+00,+0.0000000000000E+00
         +0.0000000000000E+00,+0.0000000000000E+00
         +0.0000000000000E+00,+0.0000000000000E+00
         +0.0000000000000E+00,+0.0000000000000E+00
