Title: spice test
Date: 26.04.2026 15:30:40
Plotname:  Harmonic Balance Simulation
Flags: complex
No. Variables:    4
No. Points:   48
Command:  version hbfree
Variables:
      0    frequency    frequency
      1    V(1)    voltage
      2    V(2)    voltage
      3    V(#int03)    voltage
Values:
    0    +0.0000000000000E+00,+0.0000000000000E+00
         +0.0000000000000E+00,+0.0000000000000E+00
         +0.0000000000000E+00,+0.0000000000000E+00
         +0.0000000000000E+00,+0.0000000000000E+00
    1    +0.0000000000000E+00,+0.0000000000000E+00
         -0.3916448601707E-05,+0.0000000000000E+00
         +0.3916448601707E-01,+0.0000000000000E+00
         -0.4308093461878E-04,+0.0000000000000E+00
    2    +0.0000000000000E+00,+0.0000000000000E+00
         +0.0000000000000E+00,+0.0000000000000E+00
         +0.0000000000000E+00,+0.0000000000000E+00
         +0.0000000000000E+00,+0.0000000000000E+00
    3    +0.1000000844665E+09,+0.0000000000000E+00
         +0.0000000000000E+00,+0.0000000000000E+00
         +0.0000000000000E+00,+0.0000000000000E+00
         +0.0000000000000E+00,+0.0000000000000E+00
    4    +0.1000000844665E+09,+0.0000000000000E+00
         -0.1298655849436E-05,-0.3535484169517E+00
         -0.1826919663372E-06,-0.4973639198699E-01
         -0.1298473157470E-05,-0.3534986805597E+00
    5    +0.1000000844665E+09,+0.0000000000000E+00
         +0.0000000000000E+00,+0.0000000000000E+00
         +0.0000000000000E+00,+0.0000000000000E+00
         +0.0000000000000E+00,+0.0000000000000E+00
    6    +0.2000001689329E+09,+0.0000000000000E+00
         +0.0000000000000E+00,+0.0000000000000E+00
         +0.0000000000000E+00,+0.0000000000000E+00
         +0.0000000000000E+00,+0.0000000000000E+00
    7    +0.2000001689329E+09,+0.0000000000000E+00
         +0.3535926743829E-05,-0.2597636877001E-10
         -0.3535926743829E-01,+0.2597636877001E-06
         +0.3889519418212E-04,-0.2857400564701E-09
    8    +0.2000001689329E+09,+0.0000000000000E+00
         +0.0000000000000E+00,+0.0000000000000E+00
         +0.0000000000000E+00,+0.0000000000000E+00
         +0.0000000000000E+00,+0.0000000000000E+00
    9    +0.3000002533994E+09,+0.0000000000000E+00
         +0.0000000000000E+00,+0.0000000000000E+00
         +0.0000000000000E+00,+0.0000000000000E+00
         +0.0000000000000E+00,+0.0000000000000E+00
   10    +0.3000002533994E+09,+0.0000000000000E+00
         -0.2028600347534E-10,-0.1840899371194E-05
         +0.2028600347534E-06,+0.1840899371194E-01
         -0.2231460382287E-09,-0.2024989308314E-04
   11    +0.3000002533994E+09,+0.0000000000000E+00
         +0.0000000000000E+00,+0.0000000000000E+00
         +0.0000000000000E+00,+0.0000000000000E+00
         +0.0000000000000E+00,+0.0000000000000E+00
   12    +0.4000003378658E+09,+0.0000000000000E+00
         +0.0000000000000E+00,+0.0000000000000E+00
         +0.0000000000000E+00,+0.0000000000000E+00
         +0.0000000000000E+00,+0.0000000000000E+00
   13    +0.4000003378658E+09,+0.0000000000000E+00
         -0.5013224339991E-06,+0.7365842140622E-11
         +0.5013224339991E-02,-0.7365842140622E-07
         -0.5514546773990E-05,+0.8102426354684E-10
   14    +0.4000003378658E+09,+0.0000000000000E+00
         +0.0000000000000E+00,+0.0000000000000E+00
         +0.0000000000000E+00,+0.0000000000000E+00
         +0.0000000000000E+00,+0.0000000000000E+00
   15    +0.5000004223323E+09,+0.0000000000000E+00
         +0.0000000000000E+00,+0.0000000000000E+00
         +0.0000000000000E+00,+0.0000000000000E+00
         +0.0000000000000E+00,+0.0000000000000E+00
   16    +0.5000004223323E+09,+0.0000000000000E+00
         -0.3339504577714E-11,-0.1818304555982E-06
         +0.3339504577714E-07,+0.1818304555982E-02
         -0.3673455035486E-10,-0.2000135011580E-05
   17    +0.5000004223323E+09,+0.0000000000000E+00
         +0.0000000000000E+00,+0.0000000000000E+00
         +0.0000000000000E+00,+0.0000000000000E+00
         +0.0000000000000E+00,+0.0000000000000E+00
   18    +0.6000005067987E+09,+0.0000000000000E+00
         +0.0000000000000E+00,+0.0000000000000E+00
         +0.0000000000000E+00,+0.0000000000000E+00
         +0.0000000000000E+00,+0.0000000000000E+00
   19    +0.6000005067987E+09,+0.0000000000000E+00
         -0.2896694353188E-06,+0.6384093268050E-11
         +0.2896694353188E-02,-0.6384093268050E-07
         -0.3186363788507E-05,+0.7022502594855E-10
   20    +0.6000005067987E+09,+0.0000000000000E+00
         +0.0000000000000E+00,+0.0000000000000E+00
         +0.0000000000000E+00,+0.0000000000000E+00
         +0.0000000000000E+00,+0.0000000000000E+00
   21    +0.7000005912652E+09,+0.0000000000000E+00
         +0.0000000000000E+00,+0.0000000000000E+00
         +0.0000000000000E+00,+0.0000000000000E+00
         +0.0000000000000E+00,+0.0000000000000E+00
   22    +0.7000005912652E+09,+0.0000000000000E+00
         +0.3118295963406E-11,+0.1212757495688E-06
         -0.3118295963406E-07,-0.1212757495688E-02
         +0.3430125559746E-10,+0.1334033245256E-05
   23    +0.7000005912652E+09,+0.0000000000000E+00
         +0.0000000000000E+00,+0.0000000000000E+00
         +0.0000000000000E+00,+0.0000000000000E+00
         +0.0000000000000E+00,+0.0000000000000E+00
   24    +0.8000006757317E+09,+0.0000000000000E+00
         +0.0000000000000E+00,+0.0000000000000E+00
         +0.0000000000000E+00,+0.0000000000000E+00
         +0.0000000000000E+00,+0.0000000000000E+00
   25    +0.8000006757317E+09,+0.0000000000000E+00
         -0.4369726512169E-07,+0.1284071738285E-11
         +0.4369726512169E-03,-0.1284071738285E-07
         -0.4806699163386E-06,+0.1412478912114E-10
   26    +0.8000006757317E+09,+0.0000000000000E+00
         +0.0000000000000E+00,+0.0000000000000E+00
         +0.0000000000000E+00,+0.0000000000000E+00
         +0.0000000000000E+00,+0.0000000000000E+00
   27    +0.9000007601981E+09,+0.0000000000000E+00
         +0.0000000000000E+00,+0.0000000000000E+00
         +0.0000000000000E+00,+0.0000000000000E+00
         +0.0000000000000E+00,+0.0000000000000E+00
   28    +0.9000007601981E+09,+0.0000000000000E+00
         +0.2857598038888E-11,+0.8643955173760E-07
         -0.2857598038888E-07,-0.8643955173760E-03
         +0.3143357842776E-10,+0.9508350691136E-06
   29    +0.9000007601981E+09,+0.0000000000000E+00
         +0.0000000000000E+00,+0.0000000000000E+00
         +0.0000000000000E+00,+0.0000000000000E+00
         +0.0000000000000E+00,+0.0000000000000E+00
   30    +0.1000000844665E+10,+0.0000000000000E+00
         +0.0000000000000E+00,+0.0000000000000E+00
         +0.0000000000000E+00,+0.0000000000000E+00
         +0.0000000000000E+00,+0.0000000000000E+00
   31    +0.1000000844665E+10,+0.0000000000000E+00
         +0.3842957735257E-07,-0.1411601688412E-11
         -0.3842957735257E-03,+0.1411601688412E-07
         +0.4227253508783E-06,-0.1552761857253E-10
   32    +0.1000000844665E+10,+0.0000000000000E+00
         +0.0000000000000E+00,+0.0000000000000E+00
         +0.0000000000000E+00,+0.0000000000000E+00
         +0.0000000000000E+00,+0.0000000000000E+00
   33    +0.1100000929131E+10,+0.0000000000000E+00
         +0.0000000000000E+00,+0.0000000000000E+00
         +0.0000000000000E+00,+0.0000000000000E+00
         +0.0000000000000E+00,+0.0000000000000E+00
   34    +0.1100000929131E+10,+0.0000000000000E+00
         +0.6954267771836E-12,+0.1721119879032E-07
         -0.6954267771836E-08,-0.1721119879032E-03
         +0.7649694549020E-11,+0.1893231866935E-06
   35    +0.1100000929131E+10,+0.0000000000000E+00
         +0.0000000000000E+00,+0.0000000000000E+00
         +0.0000000000000E+00,+0.0000000000000E+00
         +0.0000000000000E+00,+0.0000000000000E+00
   36    +0.1200001013597E+10,+0.0000000000000E+00
         +0.0000000000000E+00,+0.0000000000000E+00
         +0.0000000000000E+00,+0.0000000000000E+00
         +0.0000000000000E+00,+0.0000000000000E+00
   37    +0.1200001013597E+10,+0.0000000000000E+00
         +0.3201065947185E-07,-0.1410991253256E-11
         -0.3201065947185E-03,+0.1410991253256E-07
         +0.3521172541903E-06,-0.1552090378582E-10
   38    +0.1200001013597E+10,+0.0000000000000E+00
         +0.0000000000000E+00,+0.0000000000000E+00
         +0.0000000000000E+00,+0.0000000000000E+00
         +0.0000000000000E+00,+0.0000000000000E+00
   39    +0.1300001098064E+10,+0.0000000000000E+00
         +0.0000000000000E+00,+0.0000000000000E+00
         +0.0000000000000E+00,+0.0000000000000E+00
         +0.0000000000000E+00,+0.0000000000000E+00
   40    +0.1300001098064E+10,+0.0000000000000E+00
         -0.6117440300671E-12,-0.1281077675891E-07
         +0.6117440300671E-08,+0.1281077675891E-03
         -0.6729184330738E-11,-0.1409185443480E-06
   41    +0.1300001098064E+10,+0.0000000000000E+00
         +0.0000000000000E+00,+0.0000000000000E+00
         +0.0000000000000E+00,+0.0000000000000E+00
         +0.0000000000000E+00,+0.0000000000000E+00
   42    +0.1400001182530E+10,+0.0000000000000E+00
         +0.0000000000000E+00,+0.0000000000000E+00
         +0.0000000000000E+00,+0.0000000000000E+00
         +0.0000000000000E+00,+0.0000000000000E+00
   43    +0.1400001182530E+10,+0.0000000000000E+00
         +0.8718871763652E-08,-0.4483775217538E-12
         -0.8718871763652E-04,+0.4483775217538E-08
         +0.9590758940017E-07,-0.4932152739292E-11
   44    +0.1400001182530E+10,+0.0000000000000E+00
         +0.0000000000000E+00,+0.0000000000000E+00
         +0.0000000000000E+00,+0.0000000000000E+00
         +0.0000000000000E+00,+0.0000000000000E+00
   45    +0.1500001266997E+10,+0.0000000000000E+00
         +0.0000000000000E+00,+0.0000000000000E+00
         +0.0000000000000E+00,+0.0000000000000E+00
         +0.0000000000000E+00,+0.0000000000000E+00
   46    +0.1500001266997E+10,+0.0000000000000E+00
         -0.6803399291318E-12,-0.1234743723525E-07
         +0.6803399291318E-08,+0.1234743723525E-03
         -0.7483739220449E-11,-0.1358218095878E-06
   47    +0.1500001266997E+10,+0.0000000000000E+00
         +0.0000000000000E+00,+0.0000000000000E+00
         +0.0000000000000E+00,+0.0000000000000E+00
         +0.0000000000000E+00,+0.0000000000000E+00
