Title: spice test
Date: 26.04.2026 15:30:40
Plotname:  Harmonic Balance Simulation
Flags: complex
No. Variables:    5
No. Points:   60
Command:  version hbfree
Variables:
      0    frequency    frequency
      1    V(1)    voltage
      2    V(2)    voltage
      3    V(out)    voltage
      4    V(#int04)    voltage
Values:
    0    +0.0000000000000E+00,+0.0000000000000E+00
         +0.0000000000000E+00,+0.0000000000000E+00
         +0.0000000000000E+00,+0.0000000000000E+00
         +0.0000000000000E+00,+0.0000000000000E+00
         +0.0000000000000E+00,+0.0000000000000E+00
    1    +0.0000000000000E+00,+0.0000000000000E+00
         -0.5082450499342E-04,+0.0000000000000E+00
         +0.5084991724592E+00,+0.0000000000000E+00
         +0.5082450499343E+00,+0.0000000000000E+00
         -0.5590695549277E-03,+0.0000000000000E+00
    2    +0.0000000000000E+00,+0.0000000000000E+00
         +0.0000000000000E+00,+0.0000000000000E+00
         +0.0000000000000E+00,+0.0000000000000E+00
         +0.0000000000000E+00,+0.0000000000000E+00
         +0.0000000000000E+00,+0.0000000000000E+00
    3    +0.1100000929131E+09,+0.0000000000000E+00
         +0.0000000000000E+00,+0.0000000000000E+00
         +0.0000000000000E+00,+0.0000000000000E+00
         +0.0000000000000E+00,+0.0000000000000E+00
         +0.0000000000000E+00,+0.0000000000000E+00
    4    +0.1100000929131E+09,+0.0000000000000E+00
         -0.3579994069711E-04,-0.7070450245306E+00
         -0.8471334542618E-01,-0.6620020339632E-01
         +0.9010120669729E-01,+0.6810120702020E-01
         -0.3678258652955E-03,-0.7064274580189E+00
    5    +0.1100000929131E+09,+0.0000000000000E+00
         +0.0000000000000E+00,+0.0000000000000E+00
         +0.0000000000000E+00,+0.0000000000000E+00
         +0.0000000000000E+00,+0.0000000000000E+00
         +0.0000000000000E+00,+0.0000000000000E+00
    6    +0.2200001858262E+09,+0.0000000000000E+00
         +0.0000000000000E+00,+0.0000000000000E+00
         +0.0000000000000E+00,+0.0000000000000E+00
         +0.0000000000000E+00,+0.0000000000000E+00
         +0.0000000000000E+00,+0.0000000000000E+00
    7    +0.2200001858262E+09,+0.0000000000000E+00
         +0.3564297178180E-04,+0.5448420815533E-04
         -0.4020050695846E-01,+0.2062126633908E-01
         -0.4854246199617E-01,+0.2714684250967E-01
         +0.3920726895998E-03,+0.5993262897087E-03
    8    +0.2200001858262E+09,+0.0000000000000E+00
         +0.0000000000000E+00,+0.0000000000000E+00
         +0.0000000000000E+00,+0.0000000000000E+00
         +0.0000000000000E+00,+0.0000000000000E+00
         +0.0000000000000E+00,+0.0000000000000E+00
    9    +0.3300002787393E+09,+0.0000000000000E+00
         +0.0000000000000E+00,+0.0000000000000E+00
         +0.0000000000000E+00,+0.0000000000000E+00
         +0.0000000000000E+00,+0.0000000000000E+00
         +0.0000000000000E+00,+0.0000000000000E+00
   10    +0.3300002787393E+09,+0.0000000000000E+00
         +0.5745247467716E-04,-0.4099290085639E-05
         -0.7087388734231E-03,+0.2126431755139E-01
         -0.1228798294277E-02,-0.3574023136041E-01
         +0.6319772214487E-03,-0.4509219094203E-04
   11    +0.3300002787393E+09,+0.0000000000000E+00
         +0.0000000000000E+00,+0.0000000000000E+00
         +0.0000000000000E+00,+0.0000000000000E+00
         +0.0000000000000E+00,+0.0000000000000E+00
         +0.0000000000000E+00,+0.0000000000000E+00
   12    +0.1000000844665E+09,+0.0000000000000E+00
         +0.0000000000000E+00,+0.0000000000000E+00
         +0.0000000000000E+00,+0.0000000000000E+00
         +0.0000000000000E+00,+0.0000000000000E+00
         +0.0000000000000E+00,+0.0000000000000E+00
   13    +0.1000000844665E+09,+0.0000000000000E+00
         -0.2375861671880E-05,-0.7070609142142E+00
         -0.1354950789236E-02,-0.4543269953880E+00
         +0.1306102000148E-02,+0.4545554936830E+00
         -0.1609960180221E-06,-0.7066022445383E+00
   14    +0.1000000844665E+09,+0.0000000000000E+00
         +0.0000000000000E+00,+0.0000000000000E+00
         +0.0000000000000E+00,+0.0000000000000E+00
         +0.0000000000000E+00,+0.0000000000000E+00
         +0.0000000000000E+00,+0.0000000000000E+00
   15    +0.2100001773796E+09,+0.0000000000000E+00
         +0.0000000000000E+00,+0.0000000000000E+00
         +0.0000000000000E+00,+0.0000000000000E+00
         +0.0000000000000E+00,+0.0000000000000E+00
         +0.0000000000000E+00,+0.0000000000000E+00
   16    +0.2100001773796E+09,+0.0000000000000E+00
         +0.3928060645394E-04,+0.2395307633589E-04
         -0.4678493545804E-01,+0.5348893072749E-01
         -0.4820959614309E-01,+0.5692975327820E-01
         +0.4320866709933E-03,+0.2634838396947E-03
   17    +0.2100001773796E+09,+0.0000000000000E+00
         +0.0000000000000E+00,+0.0000000000000E+00
         +0.0000000000000E+00,+0.0000000000000E+00
         +0.0000000000000E+00,+0.0000000000000E+00
         +0.0000000000000E+00,+0.0000000000000E+00
   18    +0.3200002702927E+09,+0.0000000000000E+00
         +0.0000000000000E+00,+0.0000000000000E+00
         +0.0000000000000E+00,+0.0000000000000E+00
         +0.0000000000000E+00,+0.0000000000000E+00
         +0.0000000000000E+00,+0.0000000000000E+00
   19    +0.3200002702927E+09,+0.0000000000000E+00
         +0.3940507710897E-04,-0.2033792691945E-04
         +0.1120632965013E-01,+0.2881063669163E-01
         -0.1503148186978E-01,-0.3489524249020E-01
         +0.4334558481987E-03,-0.2237171961140E-03
   20    +0.3200002702927E+09,+0.0000000000000E+00
         +0.0000000000000E+00,+0.0000000000000E+00
         +0.0000000000000E+00,+0.0000000000000E+00
         +0.0000000000000E+00,+0.0000000000000E+00
         +0.0000000000000E+00,+0.0000000000000E+00
   21    -0.2300001942729E+09,+0.0000000000000E+00
         +0.0000000000000E+00,+0.0000000000000E+00
         +0.0000000000000E+00,+0.0000000000000E+00
         +0.0000000000000E+00,+0.0000000000000E+00
         +0.0000000000000E+00,+0.0000000000000E+00
   22    -0.2300001942729E+09,+0.0000000000000E+00
         -0.5652531732855E-05,-0.3649796931557E-04
         -0.1313017158650E-01,+0.3469588733624E-02
         -0.2248065704097E-01,+0.4331555710797E-02
         -0.6217784906141E-04,-0.4014776624713E-03
   23    -0.2300001942729E+09,+0.0000000000000E+00
         +0.0000000000000E+00,+0.0000000000000E+00
         +0.0000000000000E+00,+0.0000000000000E+00
         +0.0000000000000E+00,+0.0000000000000E+00
         +0.0000000000000E+00,+0.0000000000000E+00
   24    -0.1200001013597E+09,+0.0000000000000E+00
         +0.0000000000000E+00,+0.0000000000000E+00
         +0.0000000000000E+00,+0.0000000000000E+00
         +0.0000000000000E+00,+0.0000000000000E+00
         +0.0000000000000E+00,+0.0000000000000E+00
   25    -0.1200001013597E+09,+0.0000000000000E+00
         -0.3718449578867E-04,-0.1712077349233E-04
         -0.9064158076316E-02,+0.2678644873279E-01
         +0.1236050864533E-01,-0.3260066812266E-01
         -0.4090294536754E-03,-0.1883285084156E-03
   26    -0.1200001013597E+09,+0.0000000000000E+00
         +0.0000000000000E+00,+0.0000000000000E+00
         +0.0000000000000E+00,+0.0000000000000E+00
         +0.0000000000000E+00,+0.0000000000000E+00
         +0.0000000000000E+00,+0.0000000000000E+00
   27    -0.1000000844665E+08,+0.0000000000000E+00
         +0.0000000000000E+00,+0.0000000000000E+00
         +0.0000000000000E+00,+0.0000000000000E+00
         +0.0000000000000E+00,+0.0000000000000E+00
         +0.0000000000000E+00,+0.0000000000000E+00
   28    -0.1000000844665E+08,+0.0000000000000E+00
         -0.3718256095664E-04,+0.2364199412630E-04
         +0.4499769342959E-01,+0.4973989489171E-01
         +0.4644881739878E-01,+0.5304996816274E-01
         -0.4090081705230E-03,+0.2600619353893E-03
   29    -0.1000000844665E+08,+0.0000000000000E+00
         +0.0000000000000E+00,+0.0000000000000E+00
         +0.0000000000000E+00,+0.0000000000000E+00
         +0.0000000000000E+00,+0.0000000000000E+00
         +0.0000000000000E+00,+0.0000000000000E+00
   30    +0.2000001689329E+09,+0.0000000000000E+00
         +0.0000000000000E+00,+0.0000000000000E+00
         +0.0000000000000E+00,+0.0000000000000E+00
         +0.0000000000000E+00,+0.0000000000000E+00
         +0.0000000000000E+00,+0.0000000000000E+00
   31    +0.2000001689329E+09,+0.0000000000000E+00
         +0.6478409808631E-05,-0.1584254165376E-06
         -0.6696192360866E-01,+0.6905981100705E-03
         -0.6692924124504E-01,+0.6756883908786E-03
         +0.7126250789494E-04,-0.1742679581914E-05
   32    +0.2000001689329E+09,+0.0000000000000E+00
         +0.0000000000000E+00,+0.0000000000000E+00
         +0.0000000000000E+00,+0.0000000000000E+00
         +0.0000000000000E+00,+0.0000000000000E+00
         +0.0000000000000E+00,+0.0000000000000E+00
   33    +0.3100002618460E+09,+0.0000000000000E+00
         +0.0000000000000E+00,+0.0000000000000E+00
         +0.0000000000000E+00,+0.0000000000000E+00
         +0.0000000000000E+00,+0.0000000000000E+00
         +0.0000000000000E+00,+0.0000000000000E+00
   34    +0.3100002618460E+09,+0.0000000000000E+00
         +0.7701272417084E-05,-0.4244132745525E-05
         +0.4454288741317E-02,+0.1293673687042E-01
         -0.4887590079438E-02,-0.1349543770032E-01
         +0.8471399658792E-04,-0.4668546020078E-04
   35    +0.3100002618460E+09,+0.0000000000000E+00
         +0.0000000000000E+00,+0.0000000000000E+00
         +0.0000000000000E+00,+0.0000000000000E+00
         +0.0000000000000E+00,+0.0000000000000E+00
         +0.0000000000000E+00,+0.0000000000000E+00
   36    -0.2000001689329E+08,+0.0000000000000E+00
         +0.0000000000000E+00,+0.0000000000000E+00
         +0.0000000000000E+00,+0.0000000000000E+00
         +0.0000000000000E+00,+0.0000000000000E+00
         +0.0000000000000E+00,+0.0000000000000E+00
   37    -0.2000001689329E+08,+0.0000000000000E+00
         +0.5253724860601E-05,+0.9644986424470E-05
         +0.6216950282684E-02,-0.4288241930334E-02
         +0.7864100365724E-02,-0.5013463363224E-02
         +0.5779097346662E-04,+0.1060948506692E-03
   38    -0.2000001689329E+08,+0.0000000000000E+00
         +0.0000000000000E+00,+0.0000000000000E+00
         +0.0000000000000E+00,+0.0000000000000E+00
         +0.0000000000000E+00,+0.0000000000000E+00
         +0.0000000000000E+00,+0.0000000000000E+00
   39    +0.9000007601981E+08,+0.0000000000000E+00
         +0.0000000000000E+00,+0.0000000000000E+00
         +0.0000000000000E+00,+0.0000000000000E+00
         +0.0000000000000E+00,+0.0000000000000E+00
         +0.0000000000000E+00,+0.0000000000000E+00
   40    +0.9000007601981E+08,+0.0000000000000E+00
         +0.7291437237569E-05,+0.2573208009507E-05
         +0.1991043642829E-02,-0.1151466248568E-01
         -0.2292365744173E-02,+0.1207748231441E-01
         +0.8020580961326E-04,+0.2830528810458E-04
   41    +0.9000007601981E+08,+0.0000000000000E+00
         +0.0000000000000E+00,+0.0000000000000E+00
         +0.0000000000000E+00,+0.0000000000000E+00
         +0.0000000000000E+00,+0.0000000000000E+00
         +0.0000000000000E+00,+0.0000000000000E+00
   42    +0.3000002533994E+09,+0.0000000000000E+00
         +0.0000000000000E+00,+0.0000000000000E+00
         +0.0000000000000E+00,+0.0000000000000E+00
         +0.0000000000000E+00,+0.0000000000000E+00
         +0.0000000000000E+00,+0.0000000000000E+00
   43    +0.3000002533994E+09,+0.0000000000000E+00
         -0.4305778252585E-07,+0.3440310929857E-05
         +0.1590428499121E-02,-0.3238568633766E-01
         -0.1601850130391E-02,+0.3240205578288E-01
         -0.4736356077843E-06,+0.3784342022843E-04
   44    +0.3000002533994E+09,+0.0000000000000E+00
         +0.0000000000000E+00,+0.0000000000000E+00
         +0.0000000000000E+00,+0.0000000000000E+00
         +0.0000000000000E+00,+0.0000000000000E+00
         +0.0000000000000E+00,+0.0000000000000E+00
   45    +0.4100003463125E+09,+0.0000000000000E+00
         +0.0000000000000E+00,+0.0000000000000E+00
         +0.0000000000000E+00,+0.0000000000000E+00
         +0.0000000000000E+00,+0.0000000000000E+00
         +0.0000000000000E+00,+0.0000000000000E+00
   46    +0.4100003463125E+09,+0.0000000000000E+00
         +0.3793307782483E-05,-0.1534628638873E-07
         -0.1000622038485E-02,+0.5861288671445E-02
         -0.9520656511120E-03,+0.6160335607795E-02
         +0.4172638560731E-04,-0.1688091502760E-06
   47    +0.4100003463125E+09,+0.0000000000000E+00
         +0.0000000000000E+00,+0.0000000000000E+00
         +0.0000000000000E+00,+0.0000000000000E+00
         +0.0000000000000E+00,+0.0000000000000E+00
         +0.0000000000000E+00,+0.0000000000000E+00
   48    +0.1900001604863E+09,+0.0000000000000E+00
         +0.0000000000000E+00,+0.0000000000000E+00
         +0.0000000000000E+00,+0.0000000000000E+00
         +0.0000000000000E+00,+0.0000000000000E+00
         +0.0000000000000E+00,+0.0000000000000E+00
   49    +0.1900001604863E+09,+0.0000000000000E+00
         -0.4027158081843E-05,+0.1523795137026E-06
         +0.1230307574206E-02,+0.5920487387725E-02
         +0.1192352218596E-02,+0.6253248531981E-02
         -0.4429873890028E-04,+0.1676174650728E-05
   50    +0.1900001604863E+09,+0.0000000000000E+00
         +0.0000000000000E+00,+0.0000000000000E+00
         +0.0000000000000E+00,+0.0000000000000E+00
         +0.0000000000000E+00,+0.0000000000000E+00
         +0.0000000000000E+00,+0.0000000000000E+00
   51    +0.4000003378658E+09,+0.0000000000000E+00
         +0.0000000000000E+00,+0.0000000000000E+00
         +0.0000000000000E+00,+0.0000000000000E+00
         +0.0000000000000E+00,+0.0000000000000E+00
         +0.0000000000000E+00,+0.0000000000000E+00
   52    +0.4000003378658E+09,+0.0000000000000E+00
         -0.8690289383402E-06,+0.6244815139882E-07
         +0.9507858796144E-02,+0.9453794017352E-04
         +0.9503424820936E-02,+0.9863233192914E-04
         -0.9559318321743E-05,+0.6869296653870E-06
   53    +0.4000003378658E+09,+0.0000000000000E+00
         +0.0000000000000E+00,+0.0000000000000E+00
         +0.0000000000000E+00,+0.0000000000000E+00
         +0.0000000000000E+00,+0.0000000000000E+00
         +0.0000000000000E+00,+0.0000000000000E+00
   54    +0.5100004307789E+09,+0.0000000000000E+00
         +0.0000000000000E+00,+0.0000000000000E+00
         +0.0000000000000E+00,+0.0000000000000E+00
         +0.0000000000000E+00,+0.0000000000000E+00
         +0.0000000000000E+00,+0.0000000000000E+00
   55    +0.5100004307789E+09,+0.0000000000000E+00
         +0.3567424715544E-06,+0.8381531510562E-06
         -0.1401222974986E-02,+0.3254368017035E-03
         +0.1462436342294E-02,-0.3638387136047E-03
         +0.3924167187098E-05,+0.9219684661619E-05
   56    +0.5100004307789E+09,+0.0000000000000E+00
         +0.0000000000000E+00,+0.0000000000000E+00
         +0.0000000000000E+00,+0.0000000000000E+00
         +0.0000000000000E+00,+0.0000000000000E+00
         +0.0000000000000E+00,+0.0000000000000E+00
   57    +0.2900002449527E+09,+0.0000000000000E+00
         +0.0000000000000E+00,+0.0000000000000E+00
         +0.0000000000000E+00,+0.0000000000000E+00
         +0.0000000000000E+00,+0.0000000000000E+00
         +0.0000000000000E+00,+0.0000000000000E+00
   58    +0.2900002449527E+09,+0.0000000000000E+00
         +0.2305222670531E-06,-0.9858552120241E-06
         -0.1505292376872E-02,-0.9585491378498E-04
         +0.1583932530656E-02,+0.1272838864287E-03
         +0.2535744937585E-05,-0.1084440733227E-04
   59    +0.2900002449527E+09,+0.0000000000000E+00
         +0.0000000000000E+00,+0.0000000000000E+00
         +0.0000000000000E+00,+0.0000000000000E+00
         +0.0000000000000E+00,+0.0000000000000E+00
         +0.0000000000000E+00,+0.0000000000000E+00
