Title: spice test
Date: 26.04.2026 15:30:40
Plotname:  Harmonic Balance Simulation
Flags: complex
No. Variables:    5
No. Points:   60
Command:  version hbfree
Variables:
      0    frequency    frequency
      1    V(1)    voltage
      2    V(2)    voltage
      3    V(out)    voltage
      4    V(#int04)    voltage
Values:
    0    +0.0000000000000E+00,+0.0000000000000E+00
         +0.0000000000000E+00,+0.0000000000000E+00
         +0.0000000000000E+00,+0.0000000000000E+00
         +0.0000000000000E+00,+0.0000000000000E+00
         +0.0000000000000E+00,+0.0000000000000E+00
    1    +0.0000000000000E+00,+0.0000000000000E+00
         -0.2334506380455E-04,+0.0000000000000E+00
         +0.2336840886835E+00,+0.0000000000000E+00
         +0.2334506380455E+00,+0.0000000000000E+00
         -0.2567957018500E-03,+0.0000000000000E+00
    2    +0.0000000000000E+00,+0.0000000000000E+00
         +0.0000000000000E+00,+0.0000000000000E+00
         +0.0000000000000E+00,+0.0000000000000E+00
         +0.0000000000000E+00,+0.0000000000000E+00
         +0.0000000000000E+00,+0.0000000000000E+00
    3    +0.1100000929131E+09,+0.0000000000000E+00
         +0.0000000000000E+00,+0.0000000000000E+00
         +0.0000000000000E+00,+0.0000000000000E+00
         +0.0000000000000E+00,+0.0000000000000E+00
         +0.0000000000000E+00,+0.0000000000000E+00
    4    +0.1100000929131E+09,+0.0000000000000E+00
         -0.4456349204927E-05,-0.7070827544655E+00
         +0.1860859968630E-01,-0.2405074300952E+00
         +0.1859000967662E-01,-0.2402671629323E+00
         -0.2304635888154E-04,-0.7068424873026E+00
    5    +0.1100000929131E+09,+0.0000000000000E+00
         +0.0000000000000E+00,+0.0000000000000E+00
         +0.0000000000000E+00,+0.0000000000000E+00
         +0.0000000000000E+00,+0.0000000000000E+00
         +0.0000000000000E+00,+0.0000000000000E+00
    6    +0.2200001858262E+09,+0.0000000000000E+00
         +0.0000000000000E+00,+0.0000000000000E+00
         +0.0000000000000E+00,+0.0000000000000E+00
         +0.0000000000000E+00,+0.0000000000000E+00
         +0.0000000000000E+00,+0.0000000000000E+00
    7    +0.2200001858262E+09,+0.0000000000000E+00
         +0.8209035861674E-05,-0.5466855698161E-06
         -0.8217244897537E-01,+0.5472322553859E-02
         -0.8209035861675E-01,+0.5466855698161E-02
         +0.9029939447842E-04,-0.6013541267977E-05
    8    +0.2200001858262E+09,+0.0000000000000E+00
         +0.0000000000000E+00,+0.0000000000000E+00
         +0.0000000000000E+00,+0.0000000000000E+00
         +0.0000000000000E+00,+0.0000000000000E+00
         +0.0000000000000E+00,+0.0000000000000E+00
    9    +0.3300002787393E+09,+0.0000000000000E+00
         +0.0000000000000E+00,+0.0000000000000E+00
         +0.0000000000000E+00,+0.0000000000000E+00
         +0.0000000000000E+00,+0.0000000000000E+00
         +0.0000000000000E+00,+0.0000000000000E+00
   10    +0.3300002787393E+09,+0.0000000000000E+00
         -0.5161806202844E-06,-0.7928639354325E-06
         +0.5166968009047E-02,+0.7936567993680E-02
         +0.5161806202844E-02,+0.7928639354326E-02
         -0.5677986823128E-05,-0.8721503289757E-05
   11    +0.3300002787393E+09,+0.0000000000000E+00
         +0.0000000000000E+00,+0.0000000000000E+00
         +0.0000000000000E+00,+0.0000000000000E+00
         +0.0000000000000E+00,+0.0000000000000E+00
         +0.0000000000000E+00,+0.0000000000000E+00
   12    +0.1000000844665E+09,+0.0000000000000E+00
         +0.0000000000000E+00,+0.0000000000000E+00
         +0.0000000000000E+00,+0.0000000000000E+00
         +0.0000000000000E+00,+0.0000000000000E+00
         +0.0000000000000E+00,+0.0000000000000E+00
   13    +0.1000000844665E+09,+0.0000000000000E+00
         -0.2597264454798E-05,-0.7070839789241E+00
         -0.8386624970481E-06,-0.2282505989439E+00
         -0.8378246723757E-06,-0.2280225763675E+00
         -0.2596426630126E-05,-0.7068559563478E+00
   14    +0.1000000844665E+09,+0.0000000000000E+00
         +0.0000000000000E+00,+0.0000000000000E+00
         +0.0000000000000E+00,+0.0000000000000E+00
         +0.0000000000000E+00,+0.0000000000000E+00
         +0.0000000000000E+00,+0.0000000000000E+00
   15    +0.2100001773796E+09,+0.0000000000000E+00
         +0.0000000000000E+00,+0.0000000000000E+00
         +0.0000000000000E+00,+0.0000000000000E+00
         +0.0000000000000E+00,+0.0000000000000E+00
         +0.0000000000000E+00,+0.0000000000000E+00
   16    +0.2100001773796E+09,+0.0000000000000E+00
         +0.1510914116879E-04,+0.1407139376075E-05
         -0.1512425030996E+00,-0.1408546515451E-01
         -0.1510914116879E+00,-0.1407139376075E-01
         +0.1662005528567E-03,+0.1547853313682E-04
   17    +0.2100001773796E+09,+0.0000000000000E+00
         +0.0000000000000E+00,+0.0000000000000E+00
         +0.0000000000000E+00,+0.0000000000000E+00
         +0.0000000000000E+00,+0.0000000000000E+00
         +0.0000000000000E+00,+0.0000000000000E+00
   18    +0.3200002702927E+09,+0.0000000000000E+00
         +0.0000000000000E+00,+0.0000000000000E+00
         +0.0000000000000E+00,+0.0000000000000E+00
         +0.0000000000000E+00,+0.0000000000000E+00
         +0.0000000000000E+00,+0.0000000000000E+00
   19    +0.3200002702927E+09,+0.0000000000000E+00
         -0.1331766376470E-05,-0.1751969676854E-05
         +0.1333098142847E-01,+0.1753721646531E-01
         +0.1331766376471E-01,+0.1751969676854E-01
         -0.1464943014118E-04,-0.1927166644539E-04
   20    +0.3200002702927E+09,+0.0000000000000E+00
         +0.0000000000000E+00,+0.0000000000000E+00
         +0.0000000000000E+00,+0.0000000000000E+00
         +0.0000000000000E+00,+0.0000000000000E+00
         +0.0000000000000E+00,+0.0000000000000E+00
   21    -0.2300001942729E+09,+0.0000000000000E+00
         +0.0000000000000E+00,+0.0000000000000E+00
         +0.0000000000000E+00,+0.0000000000000E+00
         +0.0000000000000E+00,+0.0000000000000E+00
         +0.0000000000000E+00,+0.0000000000000E+00
   22    -0.2300001942729E+09,+0.0000000000000E+00
         -0.1394477584234E-05,+0.7125465078420E-06
         +0.1395872061819E-01,-0.7132590543499E-02
         +0.1394477584235E-01,-0.7125465078421E-02
         -0.1533925342658E-04,+0.7838011586262E-05
   23    -0.2300001942729E+09,+0.0000000000000E+00
         +0.0000000000000E+00,+0.0000000000000E+00
         +0.0000000000000E+00,+0.0000000000000E+00
         +0.0000000000000E+00,+0.0000000000000E+00
         +0.0000000000000E+00,+0.0000000000000E+00
   24    -0.1200001013597E+09,+0.0000000000000E+00
         +0.0000000000000E+00,+0.0000000000000E+00
         +0.0000000000000E+00,+0.0000000000000E+00
         +0.0000000000000E+00,+0.0000000000000E+00
         +0.0000000000000E+00,+0.0000000000000E+00
   25    -0.1200001013597E+09,+0.0000000000000E+00
         +0.9547172713833E-06,-0.2824281880504E-05
         -0.9556719886548E-02,+0.2827106162385E-01
         -0.9547172713834E-02,+0.2824281880504E-01
         +0.1050188998522E-04,-0.3106710068554E-04
   26    -0.1200001013597E+09,+0.0000000000000E+00
         +0.0000000000000E+00,+0.0000000000000E+00
         +0.0000000000000E+00,+0.0000000000000E+00
         +0.0000000000000E+00,+0.0000000000000E+00
         +0.0000000000000E+00,+0.0000000000000E+00
   27    -0.1000000844665E+08,+0.0000000000000E+00
         +0.0000000000000E+00,+0.0000000000000E+00
         +0.0000000000000E+00,+0.0000000000000E+00
         +0.0000000000000E+00,+0.0000000000000E+00
         +0.0000000000000E+00,+0.0000000000000E+00
   28    -0.1000000844665E+08,+0.0000000000000E+00
         -0.1521658643809E-04,+0.1398154402237E-05
         +0.1523180302453E+00,-0.1399552556640E-01
         +0.1521658643809E+00,-0.1398154402237E-01
         -0.1673824508190E-03,+0.1537969842461E-04
   29    -0.1000000844665E+08,+0.0000000000000E+00
         +0.0000000000000E+00,+0.0000000000000E+00
         +0.0000000000000E+00,+0.0000000000000E+00
         +0.0000000000000E+00,+0.0000000000000E+00
         +0.0000000000000E+00,+0.0000000000000E+00
   30    +0.2000001689329E+09,+0.0000000000000E+00
         +0.0000000000000E+00,+0.0000000000000E+00
         +0.0000000000000E+00,+0.0000000000000E+00
         +0.0000000000000E+00,+0.0000000000000E+00
         +0.0000000000000E+00,+0.0000000000000E+00
   31    +0.2000001689329E+09,+0.0000000000000E+00
         +0.6346864939553E-05,-0.1228069681271E-07
         -0.6353211804494E-01,+0.1229297750953E-03
         -0.6346864939554E-01,+0.1228069681271E-03
         +0.6981551433509E-04,-0.1350876649398E-06
   32    +0.2000001689329E+09,+0.0000000000000E+00
         +0.0000000000000E+00,+0.0000000000000E+00
         +0.0000000000000E+00,+0.0000000000000E+00
         +0.0000000000000E+00,+0.0000000000000E+00
         +0.0000000000000E+00,+0.0000000000000E+00
   33    +0.3100002618460E+09,+0.0000000000000E+00
         +0.0000000000000E+00,+0.0000000000000E+00
         +0.0000000000000E+00,+0.0000000000000E+00
         +0.0000000000000E+00,+0.0000000000000E+00
         +0.0000000000000E+00,+0.0000000000000E+00
   34    +0.3100002618460E+09,+0.0000000000000E+00
         +0.6012213775314E-06,-0.1598243367739E-05
         -0.6018225989091E-02,+0.1599841611107E-01
         -0.6012213775315E-02,+0.1598243367739E-01
         +0.6613435152846E-05,-0.1758067704512E-04
   35    +0.3100002618460E+09,+0.0000000000000E+00
         +0.0000000000000E+00,+0.0000000000000E+00
         +0.0000000000000E+00,+0.0000000000000E+00
         +0.0000000000000E+00,+0.0000000000000E+00
         +0.0000000000000E+00,+0.0000000000000E+00
   36    +0.9000007601981E+08,+0.0000000000000E+00
         +0.0000000000000E+00,+0.0000000000000E+00
         +0.0000000000000E+00,+0.0000000000000E+00
         +0.0000000000000E+00,+0.0000000000000E+00
         +0.0000000000000E+00,+0.0000000000000E+00
   37    +0.9000007601981E+08,+0.0000000000000E+00
         +0.4876363565998E-06,+0.1484127135456E-05
         -0.4881239929565E-02,-0.1485611262591E-01
         -0.4876363565999E-02,-0.1484127135456E-01
         +0.5363999922598E-05,+0.1632539849001E-04
   38    +0.9000007601981E+08,+0.0000000000000E+00
         +0.0000000000000E+00,+0.0000000000000E+00
         +0.0000000000000E+00,+0.0000000000000E+00
         +0.0000000000000E+00,+0.0000000000000E+00
         +0.0000000000000E+00,+0.0000000000000E+00
   39    +0.3000002533994E+09,+0.0000000000000E+00
         +0.0000000000000E+00,+0.0000000000000E+00
         +0.0000000000000E+00,+0.0000000000000E+00
         +0.0000000000000E+00,+0.0000000000000E+00
         +0.0000000000000E+00,+0.0000000000000E+00
   40    +0.3000002533994E+09,+0.0000000000000E+00
         -0.6283062662192E-07,-0.4582954574855E-06
         +0.6289345724855E-03,+0.4587537529430E-02
         +0.6283062662193E-03,+0.4582954574855E-02
         -0.6911368928412E-06,-0.5041250032340E-05
   41    +0.3000002533994E+09,+0.0000000000000E+00
         +0.0000000000000E+00,+0.0000000000000E+00
         +0.0000000000000E+00,+0.0000000000000E+00
         +0.0000000000000E+00,+0.0000000000000E+00
         +0.0000000000000E+00,+0.0000000000000E+00
   42    +0.4100003463125E+09,+0.0000000000000E+00
         +0.0000000000000E+00,+0.0000000000000E+00
         +0.0000000000000E+00,+0.0000000000000E+00
         +0.0000000000000E+00,+0.0000000000000E+00
         +0.0000000000000E+00,+0.0000000000000E+00
   43    +0.4100003463125E+09,+0.0000000000000E+00
         +0.1793189347447E-05,-0.1455209138600E-06
         -0.1794982536795E-01,+0.1456664347739E-02
         -0.1793189347447E-01,+0.1455209138601E-02
         +0.1972508282192E-04,-0.1600730052461E-05
   44    +0.4100003463125E+09,+0.0000000000000E+00
         +0.0000000000000E+00,+0.0000000000000E+00
         +0.0000000000000E+00,+0.0000000000000E+00
         +0.0000000000000E+00,+0.0000000000000E+00
         +0.0000000000000E+00,+0.0000000000000E+00
   45    +0.1900001604863E+09,+0.0000000000000E+00
         +0.0000000000000E+00,+0.0000000000000E+00
         +0.0000000000000E+00,+0.0000000000000E+00
         +0.0000000000000E+00,+0.0000000000000E+00
         +0.0000000000000E+00,+0.0000000000000E+00
   46    +0.1900001604863E+09,+0.0000000000000E+00
         -0.2074149880885E-05,-0.1108792012713E-08
         +0.2076224030766E-01,+0.1109900804726E-04
         +0.2074149880885E-01,+0.1108792012713E-04
         -0.2281564868973E-04,-0.1219671213984E-07
   47    +0.1900001604863E+09,+0.0000000000000E+00
         +0.0000000000000E+00,+0.0000000000000E+00
         +0.0000000000000E+00,+0.0000000000000E+00
         +0.0000000000000E+00,+0.0000000000000E+00
         +0.0000000000000E+00,+0.0000000000000E+00
   48    +0.4000003378658E+09,+0.0000000000000E+00
         +0.0000000000000E+00,+0.0000000000000E+00
         +0.0000000000000E+00,+0.0000000000000E+00
         +0.0000000000000E+00,+0.0000000000000E+00
         +0.0000000000000E+00,+0.0000000000000E+00
   49    +0.4000003378658E+09,+0.0000000000000E+00
         -0.8891547109764E-06,+0.7874205212630E-07
         +0.8900438656876E-02,-0.7882079417843E-03
         +0.8891547109766E-02,-0.7874205212631E-03
         -0.9780701820741E-05,+0.8661625733893E-06
   50    +0.4000003378658E+09,+0.0000000000000E+00
         +0.0000000000000E+00,+0.0000000000000E+00
         +0.0000000000000E+00,+0.0000000000000E+00
         +0.0000000000000E+00,+0.0000000000000E+00
         +0.0000000000000E+00,+0.0000000000000E+00
   51    +0.5100004307789E+09,+0.0000000000000E+00
         +0.0000000000000E+00,+0.0000000000000E+00
         +0.0000000000000E+00,+0.0000000000000E+00
         +0.0000000000000E+00,+0.0000000000000E+00
         +0.0000000000000E+00,+0.0000000000000E+00
   52    +0.5100004307789E+09,+0.0000000000000E+00
         -0.7055851616688E-07,+0.1716525968358E-07
         +0.7062907468306E-03,-0.1718242494327E-03
         +0.7055851616689E-03,-0.1716525968359E-03
         -0.7761436778357E-06,+0.1888178565194E-06
   53    +0.5100004307789E+09,+0.0000000000000E+00
         +0.0000000000000E+00,+0.0000000000000E+00
         +0.0000000000000E+00,+0.0000000000000E+00
         +0.0000000000000E+00,+0.0000000000000E+00
         +0.0000000000000E+00,+0.0000000000000E+00
   54    +0.2900002449527E+09,+0.0000000000000E+00
         +0.0000000000000E+00,+0.0000000000000E+00
         +0.0000000000000E+00,+0.0000000000000E+00
         +0.0000000000000E+00,+0.0000000000000E+00
         +0.0000000000000E+00,+0.0000000000000E+00
   55    +0.2900002449527E+09,+0.0000000000000E+00
         +0.4960577246854E-08,+0.8432720100210E-07
         -0.4965537824102E-04,-0.8441152820311E-03
         -0.4960577246855E-04,-0.8432720100211E-03
         +0.5456634971540E-07,+0.9275992110231E-06
   56    +0.2900002449527E+09,+0.0000000000000E+00
         +0.0000000000000E+00,+0.0000000000000E+00
         +0.0000000000000E+00,+0.0000000000000E+00
         +0.0000000000000E+00,+0.0000000000000E+00
         +0.0000000000000E+00,+0.0000000000000E+00
   57    +0.5000004223323E+09,+0.0000000000000E+00
         +0.0000000000000E+00,+0.0000000000000E+00
         +0.0000000000000E+00,+0.0000000000000E+00
         +0.0000000000000E+00,+0.0000000000000E+00
         +0.0000000000000E+00,+0.0000000000000E+00
   58    +0.5000004223323E+09,+0.0000000000000E+00
         +0.9393337829087E-08,-0.3742791598205E-09
         -0.9402731166917E-04,+0.3746534389804E-05
         -0.9393337829088E-04,+0.3742791598206E-05
         +0.1033267161200E-06,-0.4117070758025E-08
   59    +0.5000004223323E+09,+0.0000000000000E+00
         +0.0000000000000E+00,+0.0000000000000E+00
         +0.0000000000000E+00,+0.0000000000000E+00
         +0.0000000000000E+00,+0.0000000000000E+00
         +0.0000000000000E+00,+0.0000000000000E+00
