Title: spice test
Date: 26.04.2026 15:30:40
Plotname:  Harmonic Balance Simulation
Flags: complex
No. Variables:    5
No. Points:   57
Command:  version hbfree
Variables:
      0    frequency    frequency
      1    V(1)    voltage
      2    V(2)    voltage
      3    V(out)    voltage
      4    V(#int04)    voltage
Values:
    0    +0.0000000000000E+00,+0.0000000000000E+00
         +0.0000000000000E+00,+0.0000000000000E+00
         +0.0000000000000E+00,+0.0000000000000E+00
         +0.0000000000000E+00,+0.0000000000000E+00
         +0.0000000000000E+00,+0.0000000000000E+00
    1    +0.0000000000000E+00,+0.0000000000000E+00
         -0.8633546333031E-03,+0.0000000000000E+00
         +0.8637863106197E+01,+0.0000000000000E+00
         +0.8633546333031E+01,+0.0000000000000E+00
         -0.9496900966334E-02,+0.0000000000000E+00
    2    +0.0000000000000E+00,+0.0000000000000E+00
         +0.0000000000000E+00,+0.0000000000000E+00
         +0.0000000000000E+00,+0.0000000000000E+00
         +0.0000000000000E+00,+0.0000000000000E+00
         +0.0000000000000E+00,+0.0000000000000E+00
    3    +0.1100000929131E+09,+0.0000000000000E+00
         +0.0000000000000E+00,+0.0000000000000E+00
         +0.0000000000000E+00,+0.0000000000000E+00
         +0.0000000000000E+00,+0.0000000000000E+00
         +0.0000000000000E+00,+0.0000000000000E+00
    4    +0.1100000929131E+09,+0.0000000000000E+00
         -0.9629678550735E-03,-0.2829946749949E+00
         +0.4792352006795E+00,-0.1414262529462E+01
         -0.4794395717610E+00,+0.1493616636301E+01
         -0.1058225701286E-01,-0.2845143002172E+00
    5    +0.1100000929131E+09,+0.0000000000000E+00
         +0.0000000000000E+00,+0.0000000000000E+00
         +0.0000000000000E+00,+0.0000000000000E+00
         +0.0000000000000E+00,+0.0000000000000E+00
         +0.0000000000000E+00,+0.0000000000000E+00
    6    +0.1000000844665E+09,+0.0000000000000E+00
         +0.0000000000000E+00,+0.0000000000000E+00
         +0.0000000000000E+00,+0.0000000000000E+00
         +0.0000000000000E+00,+0.0000000000000E+00
         +0.0000000000000E+00,+0.0000000000000E+00
    7    +0.1000000844665E+09,+0.0000000000000E+00
         -0.7378808300056E-04,-0.2121224685880E+02
         -0.2343585903002E-01,-0.9475189064151E+01
         +0.2241467235828E-01,+0.9479953970757E+01
         -0.3246444182653E-04,-0.2120268109223E+02
    8    +0.1000000844665E+09,+0.0000000000000E+00
         +0.0000000000000E+00,+0.0000000000000E+00
         +0.0000000000000E+00,+0.0000000000000E+00
         +0.0000000000000E+00,+0.0000000000000E+00
         +0.0000000000000E+00,+0.0000000000000E+00
    9    +0.2100001773796E+09,+0.0000000000000E+00
         +0.0000000000000E+00,+0.0000000000000E+00
         +0.0000000000000E+00,+0.0000000000000E+00
         +0.0000000000000E+00,+0.0000000000000E+00
         +0.0000000000000E+00,+0.0000000000000E+00
   10    +0.2100001773796E+09,+0.0000000000000E+00
         -0.1392379808407E-03,+0.7106067013346E-03
         -0.1044962229561E+01,-0.3987545186039E+00
         -0.1103532742348E+01,-0.4010081154423E+00
         -0.1531617789248E-02,+0.7816673714681E-02
   11    +0.2100001773796E+09,+0.0000000000000E+00
         +0.0000000000000E+00,+0.0000000000000E+00
         +0.0000000000000E+00,+0.0000000000000E+00
         +0.0000000000000E+00,+0.0000000000000E+00
         +0.0000000000000E+00,+0.0000000000000E+00
   12    -0.1000000844665E+08,+0.0000000000000E+00
         +0.0000000000000E+00,+0.0000000000000E+00
         +0.0000000000000E+00,+0.0000000000000E+00
         +0.0000000000000E+00,+0.0000000000000E+00
         +0.0000000000000E+00,+0.0000000000000E+00
   13    -0.1000000844665E+08,+0.0000000000000E+00
         +0.1486070454550E-03,+0.7102562424815E-03
         +0.1027717257875E+01,-0.4048754500835E+00
         +0.1087153401623E+01,-0.4080323360634E+00
         +0.1634677500005E-02,+0.7812818667297E-02
   14    -0.1000000844665E+08,+0.0000000000000E+00
         +0.0000000000000E+00,+0.0000000000000E+00
         +0.0000000000000E+00,+0.0000000000000E+00
         +0.0000000000000E+00,+0.0000000000000E+00
         +0.0000000000000E+00,+0.0000000000000E+00
   15    +0.2000001689329E+09,+0.0000000000000E+00
         +0.0000000000000E+00,+0.0000000000000E+00
         +0.0000000000000E+00,+0.0000000000000E+00
         +0.0000000000000E+00,+0.0000000000000E+00
         +0.0000000000000E+00,+0.0000000000000E+00
   16    +0.2000001689329E+09,+0.0000000000000E+00
         +0.3958691479096E-03,-0.2789236648515E-05
         -0.4090762807095E+01,-0.2900737533683E-01
         -0.4088750720169E+01,-0.2988331420711E-01
         +0.4354560627006E-02,-0.3068160313367E-04
   17    +0.2000001689329E+09,+0.0000000000000E+00
         +0.0000000000000E+00,+0.0000000000000E+00
         +0.0000000000000E+00,+0.0000000000000E+00
         +0.0000000000000E+00,+0.0000000000000E+00
         +0.0000000000000E+00,+0.0000000000000E+00
   18    +0.3100002618460E+09,+0.0000000000000E+00
         +0.0000000000000E+00,+0.0000000000000E+00
         +0.0000000000000E+00,+0.0000000000000E+00
         +0.0000000000000E+00,+0.0000000000000E+00
         +0.0000000000000E+00,+0.0000000000000E+00
   19    +0.3100002618460E+09,+0.0000000000000E+00
         +0.1864205281645E-03,+0.1170189708418E-03
         -0.2290578135150E+00,+0.2546018023130E+00
         +0.2360241818334E+00,-0.2708707487627E+00
         +0.2050625809809E-02,+0.1287208679259E-02
   20    +0.3100002618460E+09,+0.0000000000000E+00
         +0.0000000000000E+00,+0.0000000000000E+00
         +0.0000000000000E+00,+0.0000000000000E+00
         +0.0000000000000E+00,+0.0000000000000E+00
         +0.0000000000000E+00,+0.0000000000000E+00
   21    +0.9000007601981E+08,+0.0000000000000E+00
         +0.0000000000000E+00,+0.0000000000000E+00
         +0.0000000000000E+00,+0.0000000000000E+00
         +0.0000000000000E+00,+0.0000000000000E+00
         +0.0000000000000E+00,+0.0000000000000E+00
   22    +0.9000007601981E+08,+0.0000000000000E+00
         +0.1861572108234E-03,-0.1252957371799E-03
         -0.2337450505132E+00,-0.2457035613635E+00
         +0.2416387476052E+00,+0.2624650331782E+00
         +0.2047729319057E-02,-0.1378253108979E-02
   23    +0.9000007601981E+08,+0.0000000000000E+00
         +0.0000000000000E+00,+0.0000000000000E+00
         +0.0000000000000E+00,+0.0000000000000E+00
         +0.0000000000000E+00,+0.0000000000000E+00
         +0.0000000000000E+00,+0.0000000000000E+00
   24    +0.3000002533994E+09,+0.0000000000000E+00
         +0.0000000000000E+00,+0.0000000000000E+00
         +0.0000000000000E+00,+0.0000000000000E+00
         +0.0000000000000E+00,+0.0000000000000E+00
         +0.0000000000000E+00,+0.0000000000000E+00
   25    +0.3000002533994E+09,+0.0000000000000E+00
         +0.1979686782130E-05,+0.1826962818667E-04
         -0.1235206008716E-01,-0.1727434403566E+00
         +0.1230200367234E-01,+0.1728375685488E+00
         +0.2177655460343E-04,+0.2009659100534E-03
   26    +0.3000002533994E+09,+0.0000000000000E+00
         +0.0000000000000E+00,+0.0000000000000E+00
         +0.0000000000000E+00,+0.0000000000000E+00
         +0.0000000000000E+00,+0.0000000000000E+00
         +0.0000000000000E+00,+0.0000000000000E+00
   27    +0.4100003463125E+09,+0.0000000000000E+00
         +0.0000000000000E+00,+0.0000000000000E+00
         +0.0000000000000E+00,+0.0000000000000E+00
         +0.0000000000000E+00,+0.0000000000000E+00
         +0.0000000000000E+00,+0.0000000000000E+00
   28    +0.4100003463125E+09,+0.0000000000000E+00
         +0.8688405701665E-04,+0.1738341789247E-03
         -0.2918742391745E+00,+0.8721439491693E-01
         -0.3045028695193E+00,+0.9623801498254E-01
         +0.9557246271831E-03,+0.1912175968172E-02
   29    +0.4100003463125E+09,+0.0000000000000E+00
         +0.0000000000000E+00,+0.0000000000000E+00
         +0.0000000000000E+00,+0.0000000000000E+00
         +0.0000000000000E+00,+0.0000000000000E+00
         +0.0000000000000E+00,+0.0000000000000E+00
   30    +0.1900001604863E+09,+0.0000000000000E+00
         +0.0000000000000E+00,+0.0000000000000E+00
         +0.0000000000000E+00,+0.0000000000000E+00
         +0.0000000000000E+00,+0.0000000000000E+00
         +0.0000000000000E+00,+0.0000000000000E+00
   31    +0.1900001604863E+09,+0.0000000000000E+00
         -0.8803579482941E-04,+0.1732591623738E-03
         +0.2783176051907E+00,+0.8702480692296E-01
         +0.2914483270723E+00,+0.9642892198094E-01
         -0.9683937431235E-03,+0.1905850786112E-02
   32    +0.1900001604863E+09,+0.0000000000000E+00
         +0.0000000000000E+00,+0.0000000000000E+00
         +0.0000000000000E+00,+0.0000000000000E+00
         +0.0000000000000E+00,+0.0000000000000E+00
         +0.0000000000000E+00,+0.0000000000000E+00
   33    +0.4000003378658E+09,+0.0000000000000E+00
         +0.0000000000000E+00,+0.0000000000000E+00
         +0.0000000000000E+00,+0.0000000000000E+00
         +0.0000000000000E+00,+0.0000000000000E+00
         +0.0000000000000E+00,+0.0000000000000E+00
   34    +0.4000003378658E+09,+0.0000000000000E+00
         +0.8899211553804E-04,-0.2776188075077E-05
         -0.9704215016559E+00,-0.4904158430299E-01
         -0.9699518024190E+00,-0.4944127902993E-01
         +0.9789132709185E-03,-0.3053806882585E-04
   35    +0.4000003378658E+09,+0.0000000000000E+00
         +0.0000000000000E+00,+0.0000000000000E+00
         +0.0000000000000E+00,+0.0000000000000E+00
         +0.0000000000000E+00,+0.0000000000000E+00
         +0.0000000000000E+00,+0.0000000000000E+00
   36    +0.5100004307789E+09,+0.0000000000000E+00
         +0.0000000000000E+00,+0.0000000000000E+00
         +0.0000000000000E+00,+0.0000000000000E+00
         +0.0000000000000E+00,+0.0000000000000E+00
         +0.0000000000000E+00,+0.0000000000000E+00
   37    +0.5100004307789E+09,+0.0000000000000E+00
         +0.1819474801209E-03,-0.4688553577391E-04
         +0.2312149873944E-01,+0.2958160222529E+00
         -0.2906396391782E-01,-0.3094854255327E+00
         +0.2001422281330E-02,-0.5157408935130E-03
   38    +0.5100004307789E+09,+0.0000000000000E+00
         +0.0000000000000E+00,+0.0000000000000E+00
         +0.0000000000000E+00,+0.0000000000000E+00
         +0.0000000000000E+00,+0.0000000000000E+00
         +0.0000000000000E+00,+0.0000000000000E+00
   39    +0.2900002449527E+09,+0.0000000000000E+00
         +0.0000000000000E+00,+0.0000000000000E+00
         +0.0000000000000E+00,+0.0000000000000E+00
         +0.0000000000000E+00,+0.0000000000000E+00
         +0.0000000000000E+00,+0.0000000000000E+00
   40    +0.2900002449527E+09,+0.0000000000000E+00
         +0.1796850051112E-03,+0.4972800435844E-04
         +0.2880242505805E-01,-0.2762590204535E+00
         -0.3516858284971E-01,+0.2904954897659E+00
         +0.1976535056224E-02,+0.5470080479428E-03
   41    +0.2900002449527E+09,+0.0000000000000E+00
         +0.0000000000000E+00,+0.0000000000000E+00
         +0.0000000000000E+00,+0.0000000000000E+00
         +0.0000000000000E+00,+0.0000000000000E+00
         +0.0000000000000E+00,+0.0000000000000E+00
   42    +0.5000004223323E+09,+0.0000000000000E+00
         +0.0000000000000E+00,+0.0000000000000E+00
         +0.0000000000000E+00,+0.0000000000000E+00
         +0.0000000000000E+00,+0.0000000000000E+00
         +0.0000000000000E+00,+0.0000000000000E+00
   43    +0.5000004223323E+09,+0.0000000000000E+00
         +0.2877449747799E-05,+0.9213336036353E-05
         -0.8362294795982E-02,-0.9393921354224E-01
         +0.8311629312535E-02,+0.9394931113234E-01
         +0.3165194722579E-04,+0.1013466963999E-03
   44    +0.5000004223323E+09,+0.0000000000000E+00
         +0.0000000000000E+00,+0.0000000000000E+00
         +0.0000000000000E+00,+0.0000000000000E+00
         +0.0000000000000E+00,+0.0000000000000E+00
         +0.0000000000000E+00,+0.0000000000000E+00
   45    +0.6100005152454E+09,+0.0000000000000E+00
         +0.0000000000000E+00,+0.0000000000000E+00
         +0.0000000000000E+00,+0.0000000000000E+00
         +0.0000000000000E+00,+0.0000000000000E+00
         +0.0000000000000E+00,+0.0000000000000E+00
   46    +0.6100005152454E+09,+0.0000000000000E+00
         -0.7698395168438E-06,-0.2192766154499E-04
         +0.3456711677693E-01,+0.4877772375369E-02
         +0.3626347355685E-01,+0.4544582244863E-02
         -0.8468234685282E-05,-0.2412042769949E-03
   47    +0.6100005152454E+09,+0.0000000000000E+00
         +0.0000000000000E+00,+0.0000000000000E+00
         +0.0000000000000E+00,+0.0000000000000E+00
         +0.0000000000000E+00,+0.0000000000000E+00
         +0.0000000000000E+00,+0.0000000000000E+00
   48    +0.3900003294192E+09,+0.0000000000000E+00
         +0.0000000000000E+00,+0.0000000000000E+00
         +0.0000000000000E+00,+0.0000000000000E+00
         +0.0000000000000E+00,+0.0000000000000E+00
         +0.0000000000000E+00,+0.0000000000000E+00
   49    +0.3900003294192E+09,+0.0000000000000E+00
         +0.1880772161415E-04,-0.1728181732592E-04
         -0.2979052760169E-01,-0.2323963900973E-01
         -0.3099315339486E-01,-0.2502222972655E-01
         +0.2068849377556E-03,-0.1900999905851E-03
   50    +0.3900003294192E+09,+0.0000000000000E+00
         +0.0000000000000E+00,+0.0000000000000E+00
         +0.0000000000000E+00,+0.0000000000000E+00
         +0.0000000000000E+00,+0.0000000000000E+00
         +0.0000000000000E+00,+0.0000000000000E+00
   51    +0.6000005067987E+09,+0.0000000000000E+00
         +0.0000000000000E+00,+0.0000000000000E+00
         +0.0000000000000E+00,+0.0000000000000E+00
         +0.0000000000000E+00,+0.0000000000000E+00
         +0.0000000000000E+00,+0.0000000000000E+00
   52    +0.6000005067987E+09,+0.0000000000000E+00
         +0.3405724363068E-04,-0.6450089126266E-05
         -0.3345871754997E+00,-0.2273609414070E-01
         -0.3346007492472E+00,-0.2295669366901E-01
         +0.3746296799375E-03,-0.7095098038893E-04
   53    +0.6000005067987E+09,+0.0000000000000E+00
         +0.0000000000000E+00,+0.0000000000000E+00
         +0.0000000000000E+00,+0.0000000000000E+00
         +0.0000000000000E+00,+0.0000000000000E+00
         +0.0000000000000E+00,+0.0000000000000E+00
   54    +0.7000005912652E+09,+0.0000000000000E+00
         +0.0000000000000E+00,+0.0000000000000E+00
         +0.0000000000000E+00,+0.0000000000000E+00
         +0.0000000000000E+00,+0.0000000000000E+00
         +0.0000000000000E+00,+0.0000000000000E+00
   55    +0.7000005912652E+09,+0.0000000000000E+00
         +0.3985899532187E-05,+0.1756100100528E-04
         +0.1239994526921E-01,-0.1717980397495E+00
         -0.1253237677409E-01,+0.1718084563093E+00
         +0.4384489485406E-04,+0.1931710110581E-03
   56    +0.7000005912652E+09,+0.0000000000000E+00
         +0.0000000000000E+00,+0.0000000000000E+00
         +0.0000000000000E+00,+0.0000000000000E+00
         +0.0000000000000E+00,+0.0000000000000E+00
         +0.0000000000000E+00,+0.0000000000000E+00
