Title: spice test
Date: 26.04.2026 15:30:41
Plotname:  Harmonic Balance Simulation
Flags: complex
No. Variables:    5
No. Points:   57
Command:  version hbfree
Variables:
      0    frequency    frequency
      1    V(1)    voltage
      2    V(2)    voltage
      3    V(3)    voltage
      4    V(4)    voltage
Values:
    0    +0.0000000000000E+00,+0.0000000000000E+00
         +0.0000000000000E+00,+0.0000000000000E+00
         +0.0000000000000E+00,+0.0000000000000E+00
         +0.0000000000000E+00,+0.0000000000000E+00
         +0.0000000000000E+00,+0.0000000000000E+00
    1    +0.0000000000000E+00,+0.0000000000000E+00
         +0.8385049182760E-05,+0.0000000000000E+00
         +0.1760860328380E-03,+0.0000000000000E+00
         +0.7234910914659E+01,+0.0000000000000E+00
         -0.7135626888010E+01,+0.0000000000000E+00
    2    +0.0000000000000E+00,+0.0000000000000E+00
         +0.0000000000000E+00,+0.0000000000000E+00
         +0.0000000000000E+00,+0.0000000000000E+00
         +0.0000000000000E+00,+0.0000000000000E+00
         +0.0000000000000E+00,+0.0000000000000E+00
    3    +0.1100000929131E+09,+0.0000000000000E+00
         +0.0000000000000E+00,+0.0000000000000E+00
         +0.0000000000000E+00,+0.0000000000000E+00
         +0.0000000000000E+00,+0.0000000000000E+00
         +0.0000000000000E+00,+0.0000000000000E+00
    4    +0.1100000929131E+09,+0.0000000000000E+00
         -0.8401207596751E-05,-0.2828084130076E+00
         -0.1556465736337E-03,-0.2821224237060E+00
         +0.1386470193592E+01,-0.1631865457601E-01
         -0.1391906942323E+01,+0.8775274005172E-01
    5    +0.1100000929131E+09,+0.0000000000000E+00
         +0.0000000000000E+00,+0.0000000000000E+00
         +0.0000000000000E+00,+0.0000000000000E+00
         +0.0000000000000E+00,+0.0000000000000E+00
         +0.0000000000000E+00,+0.0000000000000E+00
    6    +0.1000000844665E+09,+0.0000000000000E+00
         +0.0000000000000E+00,+0.0000000000000E+00
         +0.0000000000000E+00,+0.0000000000000E+00
         +0.0000000000000E+00,+0.0000000000000E+00
         +0.0000000000000E+00,+0.0000000000000E+00
    7    +0.1000000844665E+09,+0.0000000000000E+00
         -0.7791591692144E-04,-0.2121156559071E+02
         -0.7782531299099E-04,-0.2117880869587E+02
         -0.4325282117518E-01,-0.1048503331547E+02
         -0.4324298977468E-01,-0.1058568491551E+02
    8    +0.1000000844665E+09,+0.0000000000000E+00
         +0.0000000000000E+00,+0.0000000000000E+00
         +0.0000000000000E+00,+0.0000000000000E+00
         +0.0000000000000E+00,+0.0000000000000E+00
         +0.0000000000000E+00,+0.0000000000000E+00
    9    +0.2100001773796E+09,+0.0000000000000E+00
         +0.0000000000000E+00,+0.0000000000000E+00
         +0.0000000000000E+00,+0.0000000000000E+00
         +0.0000000000000E+00,+0.0000000000000E+00
         +0.0000000000000E+00,+0.0000000000000E+00
   10    +0.2100001773796E+09,+0.0000000000000E+00
         +0.7304260797887E-05,+0.1968034047374E-03
         +0.1533894767556E-03,+0.4132871499485E-02
         -0.8511997069526E-01,-0.1344262793995E+01
         +0.1739253435640E+00,-0.1294971075690E+01
   11    +0.2100001773796E+09,+0.0000000000000E+00
         +0.0000000000000E+00,+0.0000000000000E+00
         +0.0000000000000E+00,+0.0000000000000E+00
         +0.0000000000000E+00,+0.0000000000000E+00
         +0.0000000000000E+00,+0.0000000000000E+00
   12    -0.1000000844665E+08,+0.0000000000000E+00
         +0.0000000000000E+00,+0.0000000000000E+00
         +0.0000000000000E+00,+0.0000000000000E+00
         +0.0000000000000E+00,+0.0000000000000E+00
         +0.0000000000000E+00,+0.0000000000000E+00
   13    -0.1000000844665E+08,+0.0000000000000E+00
         -0.7301965757814E-05,+0.1968053747388E-03
         -0.1533412809141E-03,+0.4132912869516E-02
         +0.1283332478458E+00,+0.1246169522132E+01
         -0.1307212580160E+00,+0.1295448226365E+01
   14    -0.1000000844665E+08,+0.0000000000000E+00
         +0.0000000000000E+00,+0.0000000000000E+00
         +0.0000000000000E+00,+0.0000000000000E+00
         +0.0000000000000E+00,+0.0000000000000E+00
         +0.0000000000000E+00,+0.0000000000000E+00
   15    +0.2000001689329E+09,+0.0000000000000E+00
         +0.0000000000000E+00,+0.0000000000000E+00
         +0.0000000000000E+00,+0.0000000000000E+00
         +0.0000000000000E+00,+0.0000000000000E+00
         +0.0000000000000E+00,+0.0000000000000E+00
   16    +0.2000001689329E+09,+0.0000000000000E+00
         -0.6064105346970E-05,-0.1007181332245E-08
         -0.1273462122864E-03,-0.2115080797715E-07
         -0.3567280265484E+01,-0.1939252681982E-01
         +0.4068586361403E+01,-0.1943606927622E-01
   17    +0.2000001689329E+09,+0.0000000000000E+00
         +0.0000000000000E+00,+0.0000000000000E+00
         +0.0000000000000E+00,+0.0000000000000E+00
         +0.0000000000000E+00,+0.0000000000000E+00
         +0.0000000000000E+00,+0.0000000000000E+00
   18    +0.3100002618460E+09,+0.0000000000000E+00
         +0.0000000000000E+00,+0.0000000000000E+00
         +0.0000000000000E+00,+0.0000000000000E+00
         +0.0000000000000E+00,+0.0000000000000E+00
         +0.0000000000000E+00,+0.0000000000000E+00
   19    +0.3100002618460E+09,+0.0000000000000E+00
         +0.1125465080203E-05,-0.7838543897847E-05
         +0.2363476668427E-04,-0.1646094218548E-03
         +0.1435682245875E+00,+0.6945757328065E-01
         +0.5397159459402E+00,+0.5494620344010E-01
   20    +0.3100002618460E+09,+0.0000000000000E+00
         +0.0000000000000E+00,+0.0000000000000E+00
         +0.0000000000000E+00,+0.0000000000000E+00
         +0.0000000000000E+00,+0.0000000000000E+00
         +0.0000000000000E+00,+0.0000000000000E+00
   21    +0.9000007601981E+08,+0.0000000000000E+00
         +0.0000000000000E+00,+0.0000000000000E+00
         +0.0000000000000E+00,+0.0000000000000E+00
         +0.0000000000000E+00,+0.0000000000000E+00
         +0.0000000000000E+00,+0.0000000000000E+00
   22    +0.9000007601981E+08,+0.0000000000000E+00
         +0.1123989938811E-05,+0.7839489351156E-05
         +0.2360378871504E-04,+0.1646292763743E-03
         -0.7348385528901E+00,-0.5003453150150E-01
         -0.3386712627211E+00,-0.3554150208203E-01
   23    +0.9000007601981E+08,+0.0000000000000E+00
         +0.0000000000000E+00,+0.0000000000000E+00
         +0.0000000000000E+00,+0.0000000000000E+00
         +0.0000000000000E+00,+0.0000000000000E+00
         +0.0000000000000E+00,+0.0000000000000E+00
   24    +0.3000002533994E+09,+0.0000000000000E+00
         +0.0000000000000E+00,+0.0000000000000E+00
         +0.0000000000000E+00,+0.0000000000000E+00
         +0.0000000000000E+00,+0.0000000000000E+00
         +0.0000000000000E+00,+0.0000000000000E+00
   25    +0.3000002533994E+09,+0.0000000000000E+00
         -0.1023787821531E-08,-0.4421584483143E-04
         -0.2149954425216E-07,-0.9285327414600E-03
         +0.1551836547921E-01,-0.6877696978217E-01
         +0.1551989214481E-01,-0.3718404628038E-01
   26    +0.3000002533994E+09,+0.0000000000000E+00
         +0.0000000000000E+00,+0.0000000000000E+00
         +0.0000000000000E+00,+0.0000000000000E+00
         +0.0000000000000E+00,+0.0000000000000E+00
         +0.0000000000000E+00,+0.0000000000000E+00
   27    +0.4100003463125E+09,+0.0000000000000E+00
         +0.0000000000000E+00,+0.0000000000000E+00
         +0.0000000000000E+00,+0.0000000000000E+00
         +0.0000000000000E+00,+0.0000000000000E+00
         +0.0000000000000E+00,+0.0000000000000E+00
   28    +0.4100003463125E+09,+0.0000000000000E+00
         +0.2207144632404E-06,+0.3784303496725E-04
         +0.4635003728048E-05,+0.7947037343123E-03
         +0.5661214063955E-02,+0.8160882354095E-01
         +0.5494697505321E-01,+0.6347272342045E-01
   29    +0.4100003463125E+09,+0.0000000000000E+00
         +0.0000000000000E+00,+0.0000000000000E+00
         +0.0000000000000E+00,+0.0000000000000E+00
         +0.0000000000000E+00,+0.0000000000000E+00
         +0.0000000000000E+00,+0.0000000000000E+00
   30    +0.1900001604863E+09,+0.0000000000000E+00
         +0.0000000000000E+00,+0.0000000000000E+00
         +0.0000000000000E+00,+0.0000000000000E+00
         +0.0000000000000E+00,+0.0000000000000E+00
         +0.0000000000000E+00,+0.0000000000000E+00
   31    +0.1900001604863E+09,+0.0000000000000E+00
         -0.2203677153987E-06,+0.3784330343035E-04
         -0.4627722023372E-05,+0.7947093720373E-03
         -0.2118026635072E-01,-0.1035608546385E-01
         -0.7046691888761E-01,-0.2849189325462E-01
   32    +0.1900001604863E+09,+0.0000000000000E+00
         +0.0000000000000E+00,+0.0000000000000E+00
         +0.0000000000000E+00,+0.0000000000000E+00
         +0.0000000000000E+00,+0.0000000000000E+00
         +0.0000000000000E+00,+0.0000000000000E+00
   33    +0.4000003378658E+09,+0.0000000000000E+00
         +0.0000000000000E+00,+0.0000000000000E+00
         +0.0000000000000E+00,+0.0000000000000E+00
         +0.0000000000000E+00,+0.0000000000000E+00
         +0.0000000000000E+00,+0.0000000000000E+00
   34    +0.4000003378658E+09,+0.0000000000000E+00
         +0.4165552735911E-05,-0.1446663567792E-08
         +0.8747660745413E-04,-0.3037993492364E-07
         -0.5326318603695E+00,-0.1004081632321E-02
         +0.9178404698749E+00,-0.1006680714514E-02
   35    +0.4000003378658E+09,+0.0000000000000E+00
         +0.0000000000000E+00,+0.0000000000000E+00
         +0.0000000000000E+00,+0.0000000000000E+00
         +0.0000000000000E+00,+0.0000000000000E+00
         +0.0000000000000E+00,+0.0000000000000E+00
   36    +0.5100004307789E+09,+0.0000000000000E+00
         +0.0000000000000E+00,+0.0000000000000E+00
         +0.0000000000000E+00,+0.0000000000000E+00
         +0.0000000000000E+00,+0.0000000000000E+00
         +0.0000000000000E+00,+0.0000000000000E+00
   37    +0.5100004307789E+09,+0.0000000000000E+00
         -0.6223282949023E-05,-0.2882470732468E-05
         -0.1306889419295E-03,-0.6053188538184E-04
         -0.5040285831605E-01,+0.7663250235852E-01
         -0.1110795759378E+00,+0.1333765815068E+00
   38    +0.5100004307789E+09,+0.0000000000000E+00
         +0.0000000000000E+00,+0.0000000000000E+00
         +0.0000000000000E+00,+0.0000000000000E+00
         +0.0000000000000E+00,+0.0000000000000E+00
         +0.0000000000000E+00,+0.0000000000000E+00
   39    +0.2900002449527E+09,+0.0000000000000E+00
         +0.0000000000000E+00,+0.0000000000000E+00
         +0.0000000000000E+00,+0.0000000000000E+00
         +0.0000000000000E+00,+0.0000000000000E+00
         +0.0000000000000E+00,+0.0000000000000E+00
   40    +0.2900002449527E+09,+0.0000000000000E+00
         -0.6225201771296E-05,+0.2883711956406E-05
         -0.1307292371972E-03,+0.6055795108453E-04
         -0.4099938771900E-01,-0.7561927982615E-01
         -0.1016490860546E+00,-0.1323802484155E+00
   41    +0.2900002449527E+09,+0.0000000000000E+00
         +0.0000000000000E+00,+0.0000000000000E+00
         +0.0000000000000E+00,+0.0000000000000E+00
         +0.0000000000000E+00,+0.0000000000000E+00
         +0.0000000000000E+00,+0.0000000000000E+00
   42    +0.5000004223323E+09,+0.0000000000000E+00
         +0.0000000000000E+00,+0.0000000000000E+00
         +0.0000000000000E+00,+0.0000000000000E+00
         +0.0000000000000E+00,+0.0000000000000E+00
         +0.0000000000000E+00,+0.0000000000000E+00
   43    +0.5000004223323E+09,+0.0000000000000E+00
         +0.1458232068265E-08,+0.1257212079512E-04
         +0.3062287343357E-07,+0.2640145366975E-03
         +0.2158273293174E-01,-0.2842006878424E-03
         +0.2156839158907E-01,-0.8248350577570E-01
   44    +0.5000004223323E+09,+0.0000000000000E+00
         +0.0000000000000E+00,+0.0000000000000E+00
         +0.0000000000000E+00,+0.0000000000000E+00
         +0.0000000000000E+00,+0.0000000000000E+00
         +0.0000000000000E+00,+0.0000000000000E+00
   45    +0.6100005152454E+09,+0.0000000000000E+00
         +0.0000000000000E+00,+0.0000000000000E+00
         +0.0000000000000E+00,+0.0000000000000E+00
         +0.0000000000000E+00,+0.0000000000000E+00
         +0.0000000000000E+00,+0.0000000000000E+00
   46    +0.6100005152454E+09,+0.0000000000000E+00
         +0.1513506023304E-04,+0.5403168328776E-04
         +0.3178362648938E-03,+0.1134665349043E-02
         +0.2486042891332E-01,+0.2631622273311E-02
         +0.1234488192670E+00,+0.4127967041617E-01
   47    +0.6100005152454E+09,+0.0000000000000E+00
         +0.0000000000000E+00,+0.0000000000000E+00
         +0.0000000000000E+00,+0.0000000000000E+00
         +0.0000000000000E+00,+0.0000000000000E+00
         +0.0000000000000E+00,+0.0000000000000E+00
   48    +0.3900003294192E+09,+0.0000000000000E+00
         +0.0000000000000E+00,+0.0000000000000E+00
         +0.0000000000000E+00,+0.0000000000000E+00
         +0.0000000000000E+00,+0.0000000000000E+00
         +0.0000000000000E+00,+0.0000000000000E+00
   49    +0.3900003294192E+09,+0.0000000000000E+00
         -0.1513895492947E-04,+0.5402833594329E-04
         -0.3179180535189E-03,+0.1134595054809E-02
         -0.4644374251219E-01,+0.1436006222062E-03
         -0.1450173164237E+00,+0.3881626748950E-01
   50    +0.3900003294192E+09,+0.0000000000000E+00
         +0.0000000000000E+00,+0.0000000000000E+00
         +0.0000000000000E+00,+0.0000000000000E+00
         +0.0000000000000E+00,+0.0000000000000E+00
         +0.0000000000000E+00,+0.0000000000000E+00
   51    +0.6000005067987E+09,+0.0000000000000E+00
         +0.0000000000000E+00,+0.0000000000000E+00
         +0.0000000000000E+00,+0.0000000000000E+00
         +0.0000000000000E+00,+0.0000000000000E+00
         +0.0000000000000E+00,+0.0000000000000E+00
   52    +0.6000005067987E+09,+0.0000000000000E+00
         -0.9240780138651E-05,+0.3130810347770E-09
         -0.1940563829117E-03,+0.6574701730317E-08
         -0.1591796511630E+00,+0.3611457561355E-05
         +0.2221997787610E+00,-0.4908705254438E-05
   53    +0.6000005067987E+09,+0.0000000000000E+00
         +0.0000000000000E+00,+0.0000000000000E+00
         +0.0000000000000E+00,+0.0000000000000E+00
         +0.0000000000000E+00,+0.0000000000000E+00
         +0.0000000000000E+00,+0.0000000000000E+00
   54    +0.7000005912652E+09,+0.0000000000000E+00
         +0.0000000000000E+00,+0.0000000000000E+00
         +0.0000000000000E+00,+0.0000000000000E+00
         +0.0000000000000E+00,+0.0000000000000E+00
         +0.0000000000000E+00,+0.0000000000000E+00
   55    +0.7000005912652E+09,+0.0000000000000E+00
         +0.6475954259915E-08,+0.3137294787877E-03
         +0.1359950394582E-06,+0.6588319054541E-02
         -0.4066866600384E-07,+0.1078033124957E-01
         +0.2683539870094E-07,+0.2207524992466E-02
   56    +0.7000005912652E+09,+0.0000000000000E+00
         +0.0000000000000E+00,+0.0000000000000E+00
         +0.0000000000000E+00,+0.0000000000000E+00
         +0.0000000000000E+00,+0.0000000000000E+00
         +0.0000000000000E+00,+0.0000000000000E+00
