Title: spice test
Date: 26.04.2026 15:47:10
Plotname:  Harmonic Balance Simulation
Flags: complex
No. Variables:    5
No. Points:   60
Command:  version hbfree
Variables:
      0    frequency    frequency
      1    V(1)    voltage
      2    V(2)    voltage
      3    V(3)    voltage
      4    V(4)    voltage
Values:
    0    +0.0000000000000E+00,+0.0000000000000E+00
         +0.0000000000000E+00,+0.0000000000000E+00
         +0.0000000000000E+00,+0.0000000000000E+00
         +0.0000000000000E+00,+0.0000000000000E+00
         +0.0000000000000E+00,+0.0000000000000E+00
    1    +0.0000000000000E+00,+0.0000000000000E+00
         -0.4411074569933E-16,+0.0000000000000E+00
         -0.9263256596859E-15,+0.0000000000000E+00
         +0.6327817091460E+01,+0.0000000000000E+00
         -0.6327817091460E+01,+0.0000000000000E+00
    2    +0.0000000000000E+00,+0.0000000000000E+00
         +0.0000000000000E+00,+0.0000000000000E+00
         +0.0000000000000E+00,+0.0000000000000E+00
         +0.0000000000000E+00,+0.0000000000000E+00
         +0.0000000000000E+00,+0.0000000000000E+00
    3    +0.1000000844665E+09,+0.0000000000000E+00
         +0.0000000000000E+00,+0.0000000000000E+00
         +0.0000000000000E+00,+0.0000000000000E+00
         +0.0000000000000E+00,+0.0000000000000E+00
         +0.0000000000000E+00,+0.0000000000000E+00
    4    +0.1000000844665E+09,+0.0000000000000E+00
         -0.5508975888794E-04,-0.1499773124243E+02
         -0.5498592046920E-04,-0.1496937524242E+02
         -0.2749296023489E-04,-0.7484687621212E+01
         -0.2749296023461E-04,-0.7484687621212E+01
    5    +0.1000000844665E+09,+0.0000000000000E+00
         +0.0000000000000E+00,+0.0000000000000E+00
         +0.0000000000000E+00,+0.0000000000000E+00
         +0.0000000000000E+00,+0.0000000000000E+00
         +0.0000000000000E+00,+0.0000000000000E+00
    6    +0.2000001689329E+09,+0.0000000000000E+00
         +0.0000000000000E+00,+0.0000000000000E+00
         +0.0000000000000E+00,+0.0000000000000E+00
         +0.0000000000000E+00,+0.0000000000000E+00
         +0.0000000000000E+00,+0.0000000000000E+00
    7    +0.2000001689329E+09,+0.0000000000000E+00
         +0.3695095932389E-16,-0.1239239288192E-19
         +0.7759701458017E-15,-0.2602402505204E-18
         -0.3125701060156E+01,+0.2296354256295E-04
         +0.3125701060156E+01,-0.2296354256280E-04
    8    +0.2000001689329E+09,+0.0000000000000E+00
         +0.0000000000000E+00,+0.0000000000000E+00
         +0.0000000000000E+00,+0.0000000000000E+00
         +0.0000000000000E+00,+0.0000000000000E+00
         +0.0000000000000E+00,+0.0000000000000E+00
    9    +0.3000002533994E+09,+0.0000000000000E+00
         +0.0000000000000E+00,+0.0000000000000E+00
         +0.0000000000000E+00,+0.0000000000000E+00
         +0.0000000000000E+00,+0.0000000000000E+00
         +0.0000000000000E+00,+0.0000000000000E+00
   10    +0.3000002533994E+09,+0.0000000000000E+00
         -0.2561134948732E-09,-0.2175028540341E-04
         -0.5378383392336E-08,-0.4567559934717E-03
         -0.2689191712778E-08,-0.2283779967359E-03
         -0.2689191651662E-08,-0.2283779967363E-03
   11    +0.3000002533994E+09,+0.0000000000000E+00
         +0.0000000000000E+00,+0.0000000000000E+00
         +0.0000000000000E+00,+0.0000000000000E+00
         +0.0000000000000E+00,+0.0000000000000E+00
         +0.0000000000000E+00,+0.0000000000000E+00
   12    +0.4000003378658E+09,+0.0000000000000E+00
         +0.0000000000000E+00,+0.0000000000000E+00
         +0.0000000000000E+00,+0.0000000000000E+00
         +0.0000000000000E+00,+0.0000000000000E+00
         +0.0000000000000E+00,+0.0000000000000E+00
   13    +0.4000003378658E+09,+0.0000000000000E+00
         +0.4827915110260E-17,-0.1748850784984E-19
         +0.1013862173155E-15,-0.3672586648467E-18
         -0.5999804332647E+00,+0.8816909198494E-05
         +0.5999804332648E+00,-0.8816909198496E-05
   14    +0.4000003378658E+09,+0.0000000000000E+00
         +0.0000000000000E+00,+0.0000000000000E+00
         +0.0000000000000E+00,+0.0000000000000E+00
         +0.0000000000000E+00,+0.0000000000000E+00
         +0.0000000000000E+00,+0.0000000000000E+00
   15    +0.5000004223323E+09,+0.0000000000000E+00
         +0.0000000000000E+00,+0.0000000000000E+00
         +0.0000000000000E+00,+0.0000000000000E+00
         +0.0000000000000E+00,+0.0000000000000E+00
         +0.0000000000000E+00,+0.0000000000000E+00
   16    +0.5000004223323E+09,+0.0000000000000E+00
         -0.2160715630353E-09,-0.1081690320731E-04
         -0.4537502823741E-08,-0.2271549673536E-03
         -0.2268751409758E-08,-0.1135774836769E-03
         -0.2268751353223E-08,-0.1135774836772E-03
   17    +0.5000004223323E+09,+0.0000000000000E+00
         +0.0000000000000E+00,+0.0000000000000E+00
         +0.0000000000000E+00,+0.0000000000000E+00
         +0.0000000000000E+00,+0.0000000000000E+00
         +0.0000000000000E+00,+0.0000000000000E+00
   18    +0.6000005067987E+09,+0.0000000000000E+00
         +0.0000000000000E+00,+0.0000000000000E+00
         +0.0000000000000E+00,+0.0000000000000E+00
         +0.0000000000000E+00,+0.0000000000000E+00
         +0.0000000000000E+00,+0.0000000000000E+00
   19    +0.6000005067987E+09,+0.0000000000000E+00
         +0.2413328192769E-17,-0.1601981174049E-19
         +0.5067989204814E-16,-0.3364160465504E-18
         -0.2417058417277E+00,+0.5328902689374E-05
         +0.2417058417277E+00,-0.5328902689418E-05
   20    +0.6000005067987E+09,+0.0000000000000E+00
         +0.0000000000000E+00,+0.0000000000000E+00
         +0.0000000000000E+00,+0.0000000000000E+00
         +0.0000000000000E+00,+0.0000000000000E+00
         +0.0000000000000E+00,+0.0000000000000E+00
   21    +0.7000005912652E+09,+0.0000000000000E+00
         +0.0000000000000E+00,+0.0000000000000E+00
         +0.0000000000000E+00,+0.0000000000000E+00
         +0.0000000000000E+00,+0.0000000000000E+00
         +0.0000000000000E+00,+0.0000000000000E+00
   22    +0.7000005912652E+09,+0.0000000000000E+00
         -0.1616375931170E-09,-0.5549720212156E-05
         -0.3394389455458E-08,-0.1165441244553E-03
         -0.1697194814032E-08,-0.5827206222784E-04
         -0.1697194780724E-08,-0.5827206222783E-04
   23    +0.7000005912652E+09,+0.0000000000000E+00
         +0.0000000000000E+00,+0.0000000000000E+00
         +0.0000000000000E+00,+0.0000000000000E+00
         +0.0000000000000E+00,+0.0000000000000E+00
         +0.0000000000000E+00,+0.0000000000000E+00
   24    +0.8000006757317E+09,+0.0000000000000E+00
         +0.0000000000000E+00,+0.0000000000000E+00
         +0.0000000000000E+00,+0.0000000000000E+00
         +0.0000000000000E+00,+0.0000000000000E+00
         +0.0000000000000E+00,+0.0000000000000E+00
   25    +0.8000006757317E+09,+0.0000000000000E+00
         +0.1176398469284E-17,-0.6699670179895E-20
         +0.2470436785497E-16,-0.1406930737778E-18
         -0.1233744740350E+00,+0.3627438587953E-05
         +0.1233744740350E+00,-0.3627438587884E-05
   26    +0.8000006757317E+09,+0.0000000000000E+00
         +0.0000000000000E+00,+0.0000000000000E+00
         +0.0000000000000E+00,+0.0000000000000E+00
         +0.0000000000000E+00,+0.0000000000000E+00
         +0.0000000000000E+00,+0.0000000000000E+00
   27    +0.9000007601981E+09,+0.0000000000000E+00
         +0.0000000000000E+00,+0.0000000000000E+00
         +0.0000000000000E+00,+0.0000000000000E+00
         +0.0000000000000E+00,+0.0000000000000E+00
         +0.0000000000000E+00,+0.0000000000000E+00
   28    +0.9000007601981E+09,+0.0000000000000E+00
         -0.8427170289686E-10,-0.1908564891487E-05
         -0.1769705760834E-08,-0.4007986272122E-04
         -0.8848529195815E-09,-0.2003993136079E-04
         -0.8848527127034E-09,-0.2003993136061E-04
   29    +0.9000007601981E+09,+0.0000000000000E+00
         +0.0000000000000E+00,+0.0000000000000E+00
         +0.0000000000000E+00,+0.0000000000000E+00
         +0.0000000000000E+00,+0.0000000000000E+00
         +0.0000000000000E+00,+0.0000000000000E+00
   30    +0.1000000844665E+10,+0.0000000000000E+00
         +0.0000000000000E+00,+0.0000000000000E+00
         +0.0000000000000E+00,+0.0000000000000E+00
         +0.0000000000000E+00,+0.0000000000000E+00
         +0.0000000000000E+00,+0.0000000000000E+00
   31    +0.1000000844665E+10,+0.0000000000000E+00
         +0.6557824457481E-18,-0.4910208127406E-19
         +0.1377143136071E-16,-0.1031143706755E-17
         -0.7026248408352E-01,+0.2582701902212E-05
         +0.7026248408352E-01,-0.2582701902209E-05
   32    +0.1000000844665E+10,+0.0000000000000E+00
         +0.0000000000000E+00,+0.0000000000000E+00
         +0.0000000000000E+00,+0.0000000000000E+00
         +0.0000000000000E+00,+0.0000000000000E+00
         +0.0000000000000E+00,+0.0000000000000E+00
   33    +0.1100000929131E+10,+0.0000000000000E+00
         +0.0000000000000E+00,+0.0000000000000E+00
         +0.0000000000000E+00,+0.0000000000000E+00
         +0.0000000000000E+00,+0.0000000000000E+00
         +0.0000000000000E+00,+0.0000000000000E+00
   34    +0.1100000929131E+10,+0.0000000000000E+00
         +0.3127576697715E-10,+0.1377286921883E-05
         +0.6567911065202E-09,+0.2892302535955E-04
         +0.3283955586986E-09,+0.1446151267965E-04
         +0.3283955129589E-09,+0.1446151267958E-04
   35    +0.1100000929131E+10,+0.0000000000000E+00
         +0.0000000000000E+00,+0.0000000000000E+00
         +0.0000000000000E+00,+0.0000000000000E+00
         +0.0000000000000E+00,+0.0000000000000E+00
         +0.0000000000000E+00,+0.0000000000000E+00
   36    +0.1200001013597E+10,+0.0000000000000E+00
         +0.0000000000000E+00,+0.0000000000000E+00
         +0.0000000000000E+00,+0.0000000000000E+00
         +0.0000000000000E+00,+0.0000000000000E+00
         +0.0000000000000E+00,+0.0000000000000E+00
   37    +0.1200001013597E+10,+0.0000000000000E+00
         +0.6134903035944E-18,-0.3455699222690E-19
         +0.1288329637548E-16,-0.7256968367649E-18
         -0.4213759140182E-01,+0.1858704219177E-05
         +0.4213759140182E-01,-0.1858704219099E-05
   38    +0.1200001013597E+10,+0.0000000000000E+00
         +0.0000000000000E+00,+0.0000000000000E+00
         +0.0000000000000E+00,+0.0000000000000E+00
         +0.0000000000000E+00,+0.0000000000000E+00
         +0.0000000000000E+00,+0.0000000000000E+00
   39    +0.1300001098064E+10,+0.0000000000000E+00
         +0.0000000000000E+00,+0.0000000000000E+00
         +0.0000000000000E+00,+0.0000000000000E+00
         +0.0000000000000E+00,+0.0000000000000E+00
         +0.0000000000000E+00,+0.0000000000000E+00
   40    +0.1300001098064E+10,+0.0000000000000E+00
         +0.2187508610638E-09,+0.5188831189823E-05
         +0.4593768082341E-08,+0.1089654549863E-03
         +0.2296884028709E-08,+0.5448272749290E-04
         +0.2296884104495E-08,+0.5448272749333E-04
   41    +0.1300001098064E+10,+0.0000000000000E+00
         +0.0000000000000E+00,+0.0000000000000E+00
         +0.0000000000000E+00,+0.0000000000000E+00
         +0.0000000000000E+00,+0.0000000000000E+00
         +0.0000000000000E+00,+0.0000000000000E+00
   42    +0.1400001182530E+10,+0.0000000000000E+00
         +0.0000000000000E+00,+0.0000000000000E+00
         +0.0000000000000E+00,+0.0000000000000E+00
         +0.0000000000000E+00,+0.0000000000000E+00
         +0.0000000000000E+00,+0.0000000000000E+00
   43    +0.1400001182530E+10,+0.0000000000000E+00
         +0.8549113958753E-18,-0.6482733761412E-19
         +0.1795313931338E-16,-0.1361374089896E-17
         -0.2560687133774E-01,+0.1317454730120E-05
         +0.2560687133774E-01,-0.1317454729982E-05
   44    +0.1400001182530E+10,+0.0000000000000E+00
         +0.0000000000000E+00,+0.0000000000000E+00
         +0.0000000000000E+00,+0.0000000000000E+00
         +0.0000000000000E+00,+0.0000000000000E+00
         +0.0000000000000E+00,+0.0000000000000E+00
   45    +0.1500001266997E+10,+0.0000000000000E+00
         +0.0000000000000E+00,+0.0000000000000E+00
         +0.0000000000000E+00,+0.0000000000000E+00
         +0.0000000000000E+00,+0.0000000000000E+00
         +0.0000000000000E+00,+0.0000000000000E+00
   46    +0.1500001266997E+10,+0.0000000000000E+00
         +0.5686008828407E-09,+0.1097567567360E-04
         +0.1194061853966E-07,+0.2304891891457E-03
         +0.5970309098821E-08,+0.1152445945727E-03
         +0.5970309164783E-08,+0.1152445945729E-03
   47    +0.1500001266997E+10,+0.0000000000000E+00
         +0.0000000000000E+00,+0.0000000000000E+00
         +0.0000000000000E+00,+0.0000000000000E+00
         +0.0000000000000E+00,+0.0000000000000E+00
         +0.0000000000000E+00,+0.0000000000000E+00
   48    +0.1600001351463E+10,+0.0000000000000E+00
         +0.0000000000000E+00,+0.0000000000000E+00
         +0.0000000000000E+00,+0.0000000000000E+00
         +0.0000000000000E+00,+0.0000000000000E+00
         +0.0000000000000E+00,+0.0000000000000E+00
   49    +0.1600001351463E+10,+0.0000000000000E+00
         +0.6287521207139E-18,-0.1813171793311E-18
         +0.1320379453499E-16,-0.3807660765952E-17
         -0.1513985572496E-01,+0.8895635682105E-06
         +0.1513985572496E-01,-0.8895635680410E-06
   50    +0.1600001351463E+10,+0.0000000000000E+00
         +0.0000000000000E+00,+0.0000000000000E+00
         +0.0000000000000E+00,+0.0000000000000E+00
         +0.0000000000000E+00,+0.0000000000000E+00
         +0.0000000000000E+00,+0.0000000000000E+00
   51    +0.1700001435930E+10,+0.0000000000000E+00
         +0.0000000000000E+00,+0.0000000000000E+00
         +0.0000000000000E+00,+0.0000000000000E+00
         +0.0000000000000E+00,+0.0000000000000E+00
         +0.0000000000000E+00,+0.0000000000000E+00
   52    +0.1700001435930E+10,+0.0000000000000E+00
         +0.1418414439543E-08,+0.2348802838365E-04
         +0.2978670323040E-07,+0.4932485960568E-03
         +0.1489335159788E-07,+0.2466242980283E-03
         +0.1489335168852E-07,+0.2466242980285E-03
   53    +0.1700001435930E+10,+0.0000000000000E+00
         +0.0000000000000E+00,+0.0000000000000E+00
         +0.0000000000000E+00,+0.0000000000000E+00
         +0.0000000000000E+00,+0.0000000000000E+00
         +0.0000000000000E+00,+0.0000000000000E+00
   54    +0.1800001520396E+10,+0.0000000000000E+00
         +0.0000000000000E+00,+0.0000000000000E+00
         +0.0000000000000E+00,+0.0000000000000E+00
         +0.0000000000000E+00,+0.0000000000000E+00
         +0.0000000000000E+00,+0.0000000000000E+00
   55    +0.1800001520396E+10,+0.0000000000000E+00
         +0.9493864451574E-18,-0.3467036374624E-18
         +0.1993711534831E-16,-0.7280776386710E-17
         -0.8031691521828E-02,+0.5301088071611E-06
         +0.8031691521829E-02,-0.5301088073924E-06
   56    +0.1800001520396E+10,+0.0000000000000E+00
         +0.0000000000000E+00,+0.0000000000000E+00
         +0.0000000000000E+00,+0.0000000000000E+00
         +0.0000000000000E+00,+0.0000000000000E+00
         +0.0000000000000E+00,+0.0000000000000E+00
   57    +0.1900001604863E+10,+0.0000000000000E+00
         +0.0000000000000E+00,+0.0000000000000E+00
         +0.0000000000000E+00,+0.0000000000000E+00
         +0.0000000000000E+00,+0.0000000000000E+00
         +0.0000000000000E+00,+0.0000000000000E+00
   58    +0.1900001604863E+10,+0.0000000000000E+00
         +0.5805199009173E-08,+0.8429440389077E-04
         +0.1219091791926E-06,+0.1770182481706E-02
         +0.6095458942550E-07,+0.8850912408531E-03
         +0.6095458959859E-07,+0.8850912408535E-03
   59    +0.1900001604863E+10,+0.0000000000000E+00
         +0.0000000000000E+00,+0.0000000000000E+00
         +0.0000000000000E+00,+0.0000000000000E+00
         +0.0000000000000E+00,+0.0000000000000E+00
         +0.0000000000000E+00,+0.0000000000000E+00
