Title: spice test
Date: 26.04.2026 15:47:12
Plotname:  Harmonic Balance Simulation
Flags: complex
No. Variables:    8
No. Points:   60
Command:  version hbfree
Variables:
      0    frequency    frequency
      1    V(1)    voltage
      2    V(2)    voltage
      3    V(3)    voltage
      4    V(4)    voltage
      5    V(5)    voltage
      6    V(6)    voltage
      7    V(7)    voltage
Values:
    0    +0.0000000000000E+00,+0.0000000000000E+00
         +0.0000000000000E+00,+0.0000000000000E+00
         +0.0000000000000E+00,+0.0000000000000E+00
         +0.0000000000000E+00,+0.0000000000000E+00
         +0.0000000000000E+00,+0.0000000000000E+00
         +0.0000000000000E+00,+0.0000000000000E+00
         +0.0000000000000E+00,+0.0000000000000E+00
         +0.0000000000000E+00,+0.0000000000000E+00
    1    +0.0000000000000E+00,+0.0000000000000E+00
         -0.9799163719883E-01,+0.0000000000000E+00
         -0.2057824381175E+01,+0.0000000000000E+00
         +0.4259002898512E+01,+0.0000000000000E+00
         -0.6320891262995E+01,+0.0000000000000E+00
         -0.4063983307845E-02,+0.0000000000000E+00
         -0.4021721108460E+01,+0.0000000000000E+00
         +0.1963896727284E+01,+0.0000000000000E+00
    2    +0.0000000000000E+00,+0.0000000000000E+00
         +0.0000000000000E+00,+0.0000000000000E+00
         +0.0000000000000E+00,+0.0000000000000E+00
         +0.0000000000000E+00,+0.0000000000000E+00
         +0.0000000000000E+00,+0.0000000000000E+00
         +0.0000000000000E+00,+0.0000000000000E+00
         +0.0000000000000E+00,+0.0000000000000E+00
         +0.0000000000000E+00,+0.0000000000000E+00
    3    +0.1000000844665E+09,+0.0000000000000E+00
         +0.0000000000000E+00,+0.0000000000000E+00
         +0.0000000000000E+00,+0.0000000000000E+00
         +0.0000000000000E+00,+0.0000000000000E+00
         +0.0000000000000E+00,+0.0000000000000E+00
         +0.0000000000000E+00,+0.0000000000000E+00
         +0.0000000000000E+00,+0.0000000000000E+00
         +0.0000000000000E+00,+0.0000000000000E+00
    4    +0.1000000844665E+09,+0.0000000000000E+00
         -0.5468712615161E-04,-0.1488815102886E+02
         -0.4653063300637E-04,-0.1266819075760E+02
         -0.1911396081133E-04,-0.5204533611035E+01
         -0.2750377074509E-04,-0.7487387586476E+01
         -0.8709855027816E-07,-0.2373043991175E-01
         -0.3846123841141E-04,-0.1047196092625E+02
         -0.8069394594961E-05,-0.2196229831354E+01
    5    +0.1000000844665E+09,+0.0000000000000E+00
         +0.0000000000000E+00,+0.0000000000000E+00
         +0.0000000000000E+00,+0.0000000000000E+00
         +0.0000000000000E+00,+0.0000000000000E+00
         +0.0000000000000E+00,+0.0000000000000E+00
         +0.0000000000000E+00,+0.0000000000000E+00
         +0.0000000000000E+00,+0.0000000000000E+00
         +0.0000000000000E+00,+0.0000000000000E+00
    6    +0.2000001689329E+09,+0.0000000000000E+00
         +0.0000000000000E+00,+0.0000000000000E+00
         +0.0000000000000E+00,+0.0000000000000E+00
         +0.0000000000000E+00,+0.0000000000000E+00
         +0.0000000000000E+00,+0.0000000000000E+00
         +0.0000000000000E+00,+0.0000000000000E+00
         +0.0000000000000E+00,+0.0000000000000E+00
         +0.0000000000000E+00,+0.0000000000000E+00
    7    +0.2000001689329E+09,+0.0000000000000E+00
         +0.4786606919703E-01,-0.3515905716914E-06
         +0.1005187453138E+01,-0.7383402005519E-05
         -0.2123034544954E+01,+0.1559662905807E-04
         +0.3130246143175E+01,-0.2299491196819E-04
         +0.2024145082956E-02,-0.1488090454688E-07
         +0.1964532982161E+01,-0.1443009434389E-04
         -0.9593455290236E+00,+0.7046692338374E-05
    8    +0.2000001689329E+09,+0.0000000000000E+00
         +0.0000000000000E+00,+0.0000000000000E+00
         +0.0000000000000E+00,+0.0000000000000E+00
         +0.0000000000000E+00,+0.0000000000000E+00
         +0.0000000000000E+00,+0.0000000000000E+00
         +0.0000000000000E+00,+0.0000000000000E+00
         +0.0000000000000E+00,+0.0000000000000E+00
         +0.0000000000000E+00,+0.0000000000000E+00
    9    +0.3000002533994E+09,+0.0000000000000E+00
         +0.0000000000000E+00,+0.0000000000000E+00
         +0.0000000000000E+00,+0.0000000000000E+00
         +0.0000000000000E+00,+0.0000000000000E+00
         +0.0000000000000E+00,+0.0000000000000E+00
         +0.0000000000000E+00,+0.0000000000000E+00
         +0.0000000000000E+00,+0.0000000000000E+00
         +0.0000000000000E+00,+0.0000000000000E+00
   10    +0.3000002533994E+09,+0.0000000000000E+00
         -0.1230424070864E-07,-0.1125818943536E-02
         -0.2583890548815E-06,-0.2364219781427E-01
         -0.2718836852641E-06,-0.2497813640599E-01
         +0.1787957229464E-07,+0.1727355537837E-02
         +0.4384941792776E-08,+0.3914169461161E-03
         -0.5000889272615E-06,-0.4576715973888E-01
         +0.2416998723801E-06,+0.2212496192461E-01
   11    +0.3000002533994E+09,+0.0000000000000E+00
         +0.0000000000000E+00,+0.0000000000000E+00
         +0.0000000000000E+00,+0.0000000000000E+00
         +0.0000000000000E+00,+0.0000000000000E+00
         +0.0000000000000E+00,+0.0000000000000E+00
         +0.0000000000000E+00,+0.0000000000000E+00
         +0.0000000000000E+00,+0.0000000000000E+00
         +0.0000000000000E+00,+0.0000000000000E+00
   12    +0.4000003378658E+09,+0.0000000000000E+00
         +0.0000000000000E+00,+0.0000000000000E+00
         +0.0000000000000E+00,+0.0000000000000E+00
         +0.0000000000000E+00,+0.0000000000000E+00
         +0.0000000000000E+00,+0.0000000000000E+00
         +0.0000000000000E+00,+0.0000000000000E+00
         +0.0000000000000E+00,+0.0000000000000E+00
         +0.0000000000000E+00,+0.0000000000000E+00
   13    +0.4000003378658E+09,+0.0000000000000E+00
         +0.9495534202722E-02,-0.1394057701949E-06
         +0.1994062182572E+00,-0.2927521174093E-05
         -0.4072203667338E+00,+0.5982947038726E-05
         +0.6070462934875E+00,-0.8916657300145E-05
         +0.4197084965279E-03,-0.6189087165724E-08
         +0.3897366108081E+00,-0.5721825665156E-05
         -0.1903303925510E+00,+0.2794304491064E-05
   14    +0.4000003378658E+09,+0.0000000000000E+00
         +0.0000000000000E+00,+0.0000000000000E+00
         +0.0000000000000E+00,+0.0000000000000E+00
         +0.0000000000000E+00,+0.0000000000000E+00
         +0.0000000000000E+00,+0.0000000000000E+00
         +0.0000000000000E+00,+0.0000000000000E+00
         +0.0000000000000E+00,+0.0000000000000E+00
         +0.0000000000000E+00,+0.0000000000000E+00
   15    +0.5000004223323E+09,+0.0000000000000E+00
         +0.0000000000000E+00,+0.0000000000000E+00
         +0.0000000000000E+00,+0.0000000000000E+00
         +0.0000000000000E+00,+0.0000000000000E+00
         +0.0000000000000E+00,+0.0000000000000E+00
         +0.0000000000000E+00,+0.0000000000000E+00
         +0.0000000000000E+00,+0.0000000000000E+00
         +0.0000000000000E+00,+0.0000000000000E+00
   16    +0.5000004223323E+09,+0.0000000000000E+00
         -0.1122262302671E-07,-0.6162252555095E-03
         -0.2356750835610E-06,-0.1294073036570E-01
         -0.2549080486311E-06,-0.1405989832747E-01
         +0.2304363111360E-07,+0.1322391901401E-02
         +0.3810665999453E-08,+0.2032239396321E-03
         -0.4563168780958E-06,-0.2506201153626E-01
         +0.2206417945348E-06,+0.1212128117056E-01
   17    +0.5000004223323E+09,+0.0000000000000E+00
         +0.0000000000000E+00,+0.0000000000000E+00
         +0.0000000000000E+00,+0.0000000000000E+00
         +0.0000000000000E+00,+0.0000000000000E+00
         +0.0000000000000E+00,+0.0000000000000E+00
         +0.0000000000000E+00,+0.0000000000000E+00
         +0.0000000000000E+00,+0.0000000000000E+00
         +0.0000000000000E+00,+0.0000000000000E+00
   18    +0.6000005067987E+09,+0.0000000000000E+00
         +0.0000000000000E+00,+0.0000000000000E+00
         +0.0000000000000E+00,+0.0000000000000E+00
         +0.0000000000000E+00,+0.0000000000000E+00
         +0.0000000000000E+00,+0.0000000000000E+00
         +0.0000000000000E+00,+0.0000000000000E+00
         +0.0000000000000E+00,+0.0000000000000E+00
         +0.0000000000000E+00,+0.0000000000000E+00
   19    +0.6000005067987E+09,+0.0000000000000E+00
         +0.4032283233850E-02,-0.8869559690799E-07
         +0.8467794791086E-01,-0.1862607535068E-05
         -0.1641514966338E+00,+0.3617125513827E-05
         +0.2490222280190E+00,-0.5484017600969E-05
         +0.1927834744050E-03,-0.4284552120645E-08
         +0.1655163960623E+00,-0.3640804025348E-05
         -0.8083844815141E-01,+0.1778196490280E-05
   20    +0.6000005067987E+09,+0.0000000000000E+00
         +0.0000000000000E+00,+0.0000000000000E+00
         +0.0000000000000E+00,+0.0000000000000E+00
         +0.0000000000000E+00,+0.0000000000000E+00
         +0.0000000000000E+00,+0.0000000000000E+00
         +0.0000000000000E+00,+0.0000000000000E+00
         +0.0000000000000E+00,+0.0000000000000E+00
         +0.0000000000000E+00,+0.0000000000000E+00
   21    +0.7000005912652E+09,+0.0000000000000E+00
         +0.0000000000000E+00,+0.0000000000000E+00
         +0.0000000000000E+00,+0.0000000000000E+00
         +0.0000000000000E+00,+0.0000000000000E+00
         +0.0000000000000E+00,+0.0000000000000E+00
         +0.0000000000000E+00,+0.0000000000000E+00
         +0.0000000000000E+00,+0.0000000000000E+00
         +0.0000000000000E+00,+0.0000000000000E+00
   22    +0.7000005912652E+09,+0.0000000000000E+00
         -0.9883262203951E-08,-0.3876919008571E-03
         -0.2075485062830E-06,-0.8141529918000E-02
         -0.2355745728663E-06,-0.9284430034508E-02
         +0.3110228841842E-07,+0.1259102766253E-02
         +0.3076221753802E-08,+0.1162026497478E-03
         -0.4021375286082E-06,-0.1577916528539E-01
         +0.1945890223252E-06,+0.7637635367395E-02
   23    +0.7000005912652E+09,+0.0000000000000E+00
         +0.0000000000000E+00,+0.0000000000000E+00
         +0.0000000000000E+00,+0.0000000000000E+00
         +0.0000000000000E+00,+0.0000000000000E+00
         +0.0000000000000E+00,+0.0000000000000E+00
         +0.0000000000000E+00,+0.0000000000000E+00
         +0.0000000000000E+00,+0.0000000000000E+00
         +0.0000000000000E+00,+0.0000000000000E+00
   24    +0.8000006757317E+09,+0.0000000000000E+00
         +0.0000000000000E+00,+0.0000000000000E+00
         +0.0000000000000E+00,+0.0000000000000E+00
         +0.0000000000000E+00,+0.0000000000000E+00
         +0.0000000000000E+00,+0.0000000000000E+00
         +0.0000000000000E+00,+0.0000000000000E+00
         +0.0000000000000E+00,+0.0000000000000E+00
         +0.0000000000000E+00,+0.0000000000000E+00
   25    +0.8000006757317E+09,+0.0000000000000E+00
         +0.2219205116830E-02,-0.6497200926890E-07
         +0.4660330745343E-01,-0.1364412194647E-05
         -0.8395946592280E-01,+0.2466049246754E-05
         +0.1306825085809E+00,-0.3834031526173E-05
         +0.1197352046449E-03,-0.3570084625729E-08
         +0.9110714499468E-01,-0.2667422464651E-05
         -0.4450383754125E-01,+0.1303010270004E-05
   26    +0.8000006757317E+09,+0.0000000000000E+00
         +0.0000000000000E+00,+0.0000000000000E+00
         +0.0000000000000E+00,+0.0000000000000E+00
         +0.0000000000000E+00,+0.0000000000000E+00
         +0.0000000000000E+00,+0.0000000000000E+00
         +0.0000000000000E+00,+0.0000000000000E+00
         +0.0000000000000E+00,+0.0000000000000E+00
         +0.0000000000000E+00,+0.0000000000000E+00
   27    +0.9000007601981E+09,+0.0000000000000E+00
         +0.0000000000000E+00,+0.0000000000000E+00
         +0.0000000000000E+00,+0.0000000000000E+00
         +0.0000000000000E+00,+0.0000000000000E+00
         +0.0000000000000E+00,+0.0000000000000E+00
         +0.0000000000000E+00,+0.0000000000000E+00
         +0.0000000000000E+00,+0.0000000000000E+00
         +0.0000000000000E+00,+0.0000000000000E+00
   28    +0.9000007601981E+09,+0.0000000000000E+00
         -0.8129194039097E-08,-0.2480111434959E-03
         -0.1707130748210E-06,-0.5208234013413E-02
         -0.2126413724072E-06,-0.6517605741271E-02
         +0.4399741046222E-07,+0.1368831855307E-02
         +0.2069112850818E-08,+0.5946012745334E-04
         -0.3312278427522E-06,-0.1010899675588E-01
         +0.1605147679311E-06,+0.4900762742464E-02
   29    +0.9000007601981E+09,+0.0000000000000E+00
         +0.0000000000000E+00,+0.0000000000000E+00
         +0.0000000000000E+00,+0.0000000000000E+00
         +0.0000000000000E+00,+0.0000000000000E+00
         +0.0000000000000E+00,+0.0000000000000E+00
         +0.0000000000000E+00,+0.0000000000000E+00
         +0.0000000000000E+00,+0.0000000000000E+00
         +0.0000000000000E+00,+0.0000000000000E+00
   30    +0.1000000844665E+10,+0.0000000000000E+00
         +0.0000000000000E+00,+0.0000000000000E+00
         +0.0000000000000E+00,+0.0000000000000E+00
         +0.0000000000000E+00,+0.0000000000000E+00
         +0.0000000000000E+00,+0.0000000000000E+00
         +0.0000000000000E+00,+0.0000000000000E+00
         +0.0000000000000E+00,+0.0000000000000E+00
         +0.0000000000000E+00,+0.0000000000000E+00
   31    +0.1000000844665E+10,+0.0000000000000E+00
         +0.1399719286856E-02,-0.5110122362787E-07
         +0.2939410502398E-01,-0.1073125696185E-05
         -0.4799527811166E-01,+0.1761239989932E-05
         +0.7747931095888E-01,-0.2837739976965E-05
         +0.8992782322098E-04,-0.3374291048537E-08
         +0.5747841858433E-01,-0.2098524459791E-05
         -0.2808431356035E-01,+0.1025398763606E-05
   32    +0.1000000844665E+10,+0.0000000000000E+00
         +0.0000000000000E+00,+0.0000000000000E+00
         +0.0000000000000E+00,+0.0000000000000E+00
         +0.0000000000000E+00,+0.0000000000000E+00
         +0.0000000000000E+00,+0.0000000000000E+00
         +0.0000000000000E+00,+0.0000000000000E+00
         +0.0000000000000E+00,+0.0000000000000E+00
         +0.0000000000000E+00,+0.0000000000000E+00
   33    +0.1100000929131E+10,+0.0000000000000E+00
         +0.0000000000000E+00,+0.0000000000000E+00
         +0.0000000000000E+00,+0.0000000000000E+00
         +0.0000000000000E+00,+0.0000000000000E+00
         +0.0000000000000E+00,+0.0000000000000E+00
         +0.0000000000000E+00,+0.0000000000000E+00
         +0.0000000000000E+00,+0.0000000000000E+00
         +0.0000000000000E+00,+0.0000000000000E+00
   34    +0.1100000929131E+10,+0.0000000000000E+00
         -0.5763798567384E-08,-0.1436898026706E-03
         -0.1210397699151E-06,-0.3017485856082E-02
         -0.1859091730327E-06,-0.4658403136669E-02
         +0.6547349182659E-07,+0.1652739980763E-02
         +0.6040884992234E-09,+0.1182270018023E-04
         -0.2357116527635E-06,-0.5879459209313E-02
         +0.1146718828485E-06,+0.2861973353231E-02
   35    +0.1100000929131E+10,+0.0000000000000E+00
         +0.0000000000000E+00,+0.0000000000000E+00
         +0.0000000000000E+00,+0.0000000000000E+00
         +0.0000000000000E+00,+0.0000000000000E+00
         +0.0000000000000E+00,+0.0000000000000E+00
         +0.0000000000000E+00,+0.0000000000000E+00
         +0.0000000000000E+00,+0.0000000000000E+00
         +0.0000000000000E+00,+0.0000000000000E+00
   36    +0.1200001013597E+10,+0.0000000000000E+00
         +0.0000000000000E+00,+0.0000000000000E+00
         +0.0000000000000E+00,+0.0000000000000E+00
         +0.0000000000000E+00,+0.0000000000000E+00
         +0.0000000000000E+00,+0.0000000000000E+00
         +0.0000000000000E+00,+0.0000000000000E+00
         +0.0000000000000E+00,+0.0000000000000E+00
         +0.0000000000000E+00,+0.0000000000000E+00
   37    +0.1200001013597E+10,+0.0000000000000E+00
         +0.9598541260185E-03,-0.4192131818317E-07
         +0.2015693664639E-01,-0.8803476818466E-06
         -0.2895565005327E-01,+0.1274041692539E-05
         +0.4919123393250E-01,-0.2157952213191E-05
         +0.7864723283210E-04,-0.3562838604849E-08
         +0.3943266639959E-01,-0.1722336884115E-05
         -0.1927572975320E-01,+0.8419892022683E-06
   38    +0.1200001013597E+10,+0.0000000000000E+00
         +0.0000000000000E+00,+0.0000000000000E+00
         +0.0000000000000E+00,+0.0000000000000E+00
         +0.0000000000000E+00,+0.0000000000000E+00
         +0.0000000000000E+00,+0.0000000000000E+00
         +0.0000000000000E+00,+0.0000000000000E+00
         +0.0000000000000E+00,+0.0000000000000E+00
         +0.0000000000000E+00,+0.0000000000000E+00
   39    +0.1300001098064E+10,+0.0000000000000E+00
         +0.0000000000000E+00,+0.0000000000000E+00
         +0.0000000000000E+00,+0.0000000000000E+00
         +0.0000000000000E+00,+0.0000000000000E+00
         +0.0000000000000E+00,+0.0000000000000E+00
         +0.0000000000000E+00,+0.0000000000000E+00
         +0.0000000000000E+00,+0.0000000000000E+00
         +0.0000000000000E+00,+0.0000000000000E+00
   40    +0.1300001098064E+10,+0.0000000000000E+00
         -0.2446613746352E-08,-0.5099086438528E-04
         -0.5137888867339E-07,-0.1070808152091E-02
         -0.1554939562671E-06,-0.3290703527993E-02
         +0.1023943966854E-06,+0.2180432209314E-02
         -0.1720670720287E-08,-0.3946316658446E-04
         -0.1020318343207E-06,-0.2130088606381E-02
         +0.5065294564733E-07,+0.1059280454290E-02
   41    +0.1300001098064E+10,+0.0000000000000E+00
         +0.0000000000000E+00,+0.0000000000000E+00
         +0.0000000000000E+00,+0.0000000000000E+00
         +0.0000000000000E+00,+0.0000000000000E+00
         +0.0000000000000E+00,+0.0000000000000E+00
         +0.0000000000000E+00,+0.0000000000000E+00
         +0.0000000000000E+00,+0.0000000000000E+00
         +0.0000000000000E+00,+0.0000000000000E+00
   42    +0.1400001182530E+10,+0.0000000000000E+00
         +0.0000000000000E+00,+0.0000000000000E+00
         +0.0000000000000E+00,+0.0000000000000E+00
         +0.0000000000000E+00,+0.0000000000000E+00
         +0.0000000000000E+00,+0.0000000000000E+00
         +0.0000000000000E+00,+0.0000000000000E+00
         +0.0000000000000E+00,+0.0000000000000E+00
         +0.0000000000000E+00,+0.0000000000000E+00
   43    +0.1400001182530E+10,+0.0000000000000E+00
         +0.6907794904830E-03,-0.3507070598201E-07
         +0.1450636930014E-01,-0.7364848256222E-06
         -0.1775670486761E-01,+0.9104233250783E-06
         +0.3234235794511E-01,-0.1651116457267E-05
         +0.7928377734565E-04,-0.4208306477124E-08
         +0.2840124288715E-01,-0.1442107251739E-05
         -0.1389487358701E-01,+0.7056224261173E-06
   44    +0.1400001182530E+10,+0.0000000000000E+00
         +0.0000000000000E+00,+0.0000000000000E+00
         +0.0000000000000E+00,+0.0000000000000E+00
         +0.0000000000000E+00,+0.0000000000000E+00
         +0.0000000000000E+00,+0.0000000000000E+00
         +0.0000000000000E+00,+0.0000000000000E+00
         +0.0000000000000E+00,+0.0000000000000E+00
         +0.0000000000000E+00,+0.0000000000000E+00
   45    +0.1500001266997E+10,+0.0000000000000E+00
         +0.0000000000000E+00,+0.0000000000000E+00
         +0.0000000000000E+00,+0.0000000000000E+00
         +0.0000000000000E+00,+0.0000000000000E+00
         +0.0000000000000E+00,+0.0000000000000E+00
         +0.0000000000000E+00,+0.0000000000000E+00
         +0.0000000000000E+00,+0.0000000000000E+00
         +0.0000000000000E+00,+0.0000000000000E+00
   46    +0.1500001266997E+10,+0.0000000000000E+00
         +0.2476397136835E-08,+0.4708243277673E-04
         +0.5200433987354E-07,+0.9887310883113E-03
         -0.1214980724271E-06,-0.2220908529041E-02
         +0.1675298148448E-06,+0.3097048351062E-02
         -0.5972597340681E-08,-0.1125912662862E-03
         +0.9555968526957E-07,+0.1817788477560E-02
         -0.4355534539603E-07,-0.8290573892484E-03
   47    +0.1500001266997E+10,+0.0000000000000E+00
         +0.0000000000000E+00,+0.0000000000000E+00
         +0.0000000000000E+00,+0.0000000000000E+00
         +0.0000000000000E+00,+0.0000000000000E+00
         +0.0000000000000E+00,+0.0000000000000E+00
         +0.0000000000000E+00,+0.0000000000000E+00
         +0.0000000000000E+00,+0.0000000000000E+00
         +0.0000000000000E+00,+0.0000000000000E+00
   48    +0.1600001351463E+10,+0.0000000000000E+00
         +0.0000000000000E+00,+0.0000000000000E+00
         +0.0000000000000E+00,+0.0000000000000E+00
         +0.0000000000000E+00,+0.0000000000000E+00
         +0.0000000000000E+00,+0.0000000000000E+00
         +0.0000000000000E+00,+0.0000000000000E+00
         +0.0000000000000E+00,+0.0000000000000E+00
         +0.0000000000000E+00,+0.0000000000000E+00
   49    +0.1600001351463E+10,+0.0000000000000E+00
         +0.4921922437886E-03,-0.2845989750666E-07
         +0.1033603711956E-01,-0.5976578476399E-06
         -0.1064888235803E-01,+0.6229486024564E-06
         +0.2107815441627E-01,-0.1226271560631E-05
         +0.9323493867526E-04,-0.5665110978534E-08
         +0.2027311693401E-01,-0.1172520908752E-05
         -0.9937079814447E-02,+0.5748630611118E-06
   50    +0.1600001351463E+10,+0.0000000000000E+00
         +0.0000000000000E+00,+0.0000000000000E+00
         +0.0000000000000E+00,+0.0000000000000E+00
         +0.0000000000000E+00,+0.0000000000000E+00
         +0.0000000000000E+00,+0.0000000000000E+00
         +0.0000000000000E+00,+0.0000000000000E+00
         +0.0000000000000E+00,+0.0000000000000E+00
         +0.0000000000000E+00,+0.0000000000000E+00
   51    +0.1700001435930E+10,+0.0000000000000E+00
         +0.0000000000000E+00,+0.0000000000000E+00
         +0.0000000000000E+00,+0.0000000000000E+00
         +0.0000000000000E+00,+0.0000000000000E+00
         +0.0000000000000E+00,+0.0000000000000E+00
         +0.0000000000000E+00,+0.0000000000000E+00
         +0.0000000000000E+00,+0.0000000000000E+00
         +0.0000000000000E+00,+0.0000000000000E+00
   52    +0.1700001435930E+10,+0.0000000000000E+00
         +0.1018066824948E-07,+0.1681252685569E-03
         +0.2137940332390E-06,+0.3530630639695E-02
         -0.8346216507359E-07,-0.1338706030049E-02
         +0.2811513793670E-06,+0.4605405785375E-02
         -0.1610481923117E-07,-0.2639308843666E-03
         +0.4013025789973E-06,+0.6629205126467E-02
         -0.1875085457583E-06,-0.3098574486772E-02
   53    +0.1700001435930E+10,+0.0000000000000E+00
         +0.0000000000000E+00,+0.0000000000000E+00
         +0.0000000000000E+00,+0.0000000000000E+00
         +0.0000000000000E+00,+0.0000000000000E+00
         +0.0000000000000E+00,+0.0000000000000E+00
         +0.0000000000000E+00,+0.0000000000000E+00
         +0.0000000000000E+00,+0.0000000000000E+00
         +0.0000000000000E+00,+0.0000000000000E+00
   54    +0.1800001520396E+10,+0.0000000000000E+00
         +0.0000000000000E+00,+0.0000000000000E+00
         +0.0000000000000E+00,+0.0000000000000E+00
         +0.0000000000000E+00,+0.0000000000000E+00
         +0.0000000000000E+00,+0.0000000000000E+00
         +0.0000000000000E+00,+0.0000000000000E+00
         +0.0000000000000E+00,+0.0000000000000E+00
         +0.0000000000000E+00,+0.0000000000000E+00
   55    +0.1800001520396E+10,+0.0000000000000E+00
         +0.2491691692895E-03,-0.1625148665134E-07
         +0.5232552555079E-02,-0.3412812196781E-06
         -0.5797722938089E-02,+0.3806897310017E-06
         +0.1116649001199E-01,-0.7312654649924E-06
         +0.1362145188194E-03,-0.9294514282745E-08
         +0.1035215045969E-01,-0.6756054669876E-06
         -0.5119597904609E-02,+0.3343242473095E-06
   56    +0.1800001520396E+10,+0.0000000000000E+00
         +0.0000000000000E+00,+0.0000000000000E+00
         +0.0000000000000E+00,+0.0000000000000E+00
         +0.0000000000000E+00,+0.0000000000000E+00
         +0.0000000000000E+00,+0.0000000000000E+00
         +0.0000000000000E+00,+0.0000000000000E+00
         +0.0000000000000E+00,+0.0000000000000E+00
         +0.0000000000000E+00,+0.0000000000000E+00
   57    +0.1900001604863E+10,+0.0000000000000E+00
         +0.0000000000000E+00,+0.0000000000000E+00
         +0.0000000000000E+00,+0.0000000000000E+00
         +0.0000000000000E+00,+0.0000000000000E+00
         +0.0000000000000E+00,+0.0000000000000E+00
         +0.0000000000000E+00,+0.0000000000000E+00
         +0.0000000000000E+00,+0.0000000000000E+00
         +0.0000000000000E+00,+0.0000000000000E+00
   58    +0.1900001604863E+10,+0.0000000000000E+00
         +0.1489751083241E-07,+0.2175387315651E-03
         +0.3128477274806E-06,+0.4568313362868E-02
         -0.3655789250541E-07,-0.5222056235215E-03
         +0.2820542357411E-06,+0.4112061756603E-02
         -0.6735138435253E-07,-0.9784572297846E-03
         +0.5434465597764E-06,+0.7940630764386E-02
         -0.2305988322957E-06,-0.3372317401518E-02
   59    +0.1900001604863E+10,+0.0000000000000E+00
         +0.0000000000000E+00,+0.0000000000000E+00
         +0.0000000000000E+00,+0.0000000000000E+00
         +0.0000000000000E+00,+0.0000000000000E+00
         +0.0000000000000E+00,+0.0000000000000E+00
         +0.0000000000000E+00,+0.0000000000000E+00
         +0.0000000000000E+00,+0.0000000000000E+00
         +0.0000000000000E+00,+0.0000000000000E+00
